                  Welcome to Q-Chem
     A Quantum Leap Into The Future Of Chemistry


 Q-Chem 6.2 (devel), Q-Chem, Inc., Pleasanton, CA (2024)

 E. Epifanovsky,  A. T. B. Gilbert,  Xintian Feng,  Joonho Lee,  Yuezhi Mao,  
 N. Mardirossian,  P. Pokhilko,  A. White,  M. Wormit,  M. P. Coons,  
 A. L. Dempwolff,  Zhengting Gan,  D. Hait,  P. R. Horn,  L. D. Jacobson,  
 I. Kaliman,  J. Kussmann,  A. W. Lange,  Ka Un Lao,  D. S. Levine,  Jie Liu,  
 S. C. McKenzie,  A. F. Morrison,  K. D. Nanda,  F. Plasser,  D. R. Rehn,  
 M. L. Vidal,  Zhi-Qiang You,  Ying Zhu,  Huseyin Aksu,  B. Alam,  
 B. Albrecht,  A. Aldossary,  E. Alguire,  J. H. Andersen,  
 J. E. Arias-Martinez,  V. Athavale,  D. Barton,  K. Begam,  A. Behn,  
 N. Bellonzi,  Y. A. Bernard,  E. J. Berquist,  H. Burton,  A. Carreras,  
 K. Carter-Fenk,  Mathew Chow,  Romit Chakraborty,  Chandrima Chakravarty,  
 Junhan Chen,  A. D. Chien,  K. D. Closser,  V. Cofer-Shabica,  L. Cunha,  
 S. Dasgupta,  Jia Deng,  Joseph Dickinson,  M. de Wergifosse,  
 M. Diedenhofen,  Hainam Do,  Wenjie Dou,  S. Ehlert,  Po-Tung Fang,  
 S. Fatehi,  Qingguo Feng,  Jonathan Fetherolf,  T. Friedhoff,  
 Thomas Froitzheim,  Sarai Folkestad,  B. Ganoe,  J. Gayvert,  Qinghui Ge,  
 G. Gidofalvi,  M. Gimferrer,  M. Goldey,  Montgomery Gray,  J. Gomes,  
 C. Gonzalez-Espinoza,  S. Gulania,  A. Gunina,  J. A. Gyamfi,  
 M. W. D. Hanson-Heine,  P. H. P. Harbach,  A. W. Hauser,  M. F. Herbst,  
 M. Hernandez Vera,  M. Hodecker,  Z. C. Holden,  S. Houck,  Xunkun Huang,  
 Kerwin Hui,  B. C. Huynh,  K. Ikeda,  M. Ivanov,  Nayanthara K. Jayadev,  
 Hyunjun Ji,  Zuxin Jin,  Hanjie Jiang,  Subrata Jana,  B. Kaduk,  
 S. Kaehler,  R. Kang,  K. Khistyaev,  Jaehoon Kim,  Yongbin Kim,  
 P. Klunzinger,  Z. Koczor-Benda,  Joong Hoon Koh,  D. Kosenkov,  
 Saikiran Kotaru,  L. Koulias,  T. Kowalczyk,  C. M. Krauter,  K. Kue,  
 A. Kunitsa,  T. Kus,  A. Landau,  K. V. Lawler,  D. Lefrancois,  S. Lehtola,  
 Rain Li,  Shaozhi Li,  Tao E. Li,  Yi-Pei Li,  Jiashu Liang,  M. Liebenthal,  
 Hung-Hsuan Lin,  You-Sheng Lin,  Fenglai Liu,  Kuan-Yu Liu,  Xiao Liu,  
 M. Loipersberger,  A. Luenser,  C. Malbon,  Aniket Mandal,  Manisha,  
 A. Manjanath,  P. Manohar,  E. Mansoor,  S. F. Manzer,  Shan-Ping Mao,  
 A. V. Marenich,  T. Markovich,  S. Mason,  F. Matz,  S. A. Maurer,  
 Samuel May,  Alexandra McIsaac,  P. F. McLaughlin,  M. F. S. J. Menger,  
 J.-M. Mewes,  S. A. Mewes,  P. Morgante,  Mohammad Mostafanejad,  
 Madhubani Mukherjee,  J. W. Mullinax,  Quyen Nguyen,  Avik Kumar Ojha,  
 K. J. Oosterbaan,  Eno Paenurk,  Xiaoliang Pan,  G. Paran,  V. Parravicini,  
 Alexander C. Paul,  Suranjan K. Paul,  F. Pavosevic,  Zheng Pei,  S. Prager,  
 E. I. Proynov,  E. Ramos,  B. Rana,  A. E. Rask,  A. Rettig,  R. M. Richard,  
 F. Rob,  E. Rossomme,  T. Scheele,  M. Scheurer,  M. Schneider,  
 P. E. Schneider,  Tim K. Schramm,  N. Sergueev,  S. M. Sharada,  
 Hengyuan Shen,  W. Skomorowski,  D. W. Small,  C. J. Stein,  
 Alistair J. Sterling,  Yingli Su,  Yu-Chuan Su,  E. J. Sundstrom,  
 J. Talbot,  Zhen Tao,  J. Thirman,  Hung-Yi Tsai,  T. Tsuchimochi,  
 N. M. Tubman,  C. Utku,  S. P. Veccham,  O. Vydrov,  Rahel Weiss,  
 J. Wenzel,  Jonathan Wong,  J. Witte,  H. Wu,  Yanze Wu,  A. Yamada,  
 Chou-Hsun Yang,  Kun Yao,  S. Yeganeh,  S. R. Yost,  Qi Yu,  A. Zech,  
 F. Zeller,  Chongxiao Zhao,  Igor Ying Zhang,  Xing Zhang,  Yu Zhang,  
 D. Zuev,  A. Aspuru-Guzik,  A. T. Bell,  N. A. Besley,  K. B. Bravaya,  
 B. R. Brooks,  D. Casanova,  Jeng-Da Chai,  Hsing-Ta Chen,  S. Coriani,  
 C. J. Cramer,  A. E. DePrince, III,  R. A. DiStasio Jr.,  A. Dreuw,  
 B. D. Dunietz,  T. R. Furlani,  W. A. Goddard III,  S. Grimme,  
 S. Hammes-Schiffer,  T. Head-Gordon,  W. J. Hehre,  Chao-Ping Hsu,  
 T.-C. Jagau,  Yousung Jung,  A. Klamt,  Jing Kong,  D. S. Lambrecht,  
 Xiangyuan Li,  WanZhen Liang,  N. J. Mayhall,  C. W. McCurdy,  J. B. Neaton,  
 T. Neudecker,  C. Ochsenfeld,  J. A. Parkhill,  R. Peverati,  
 V. A. Rassolov,  Haisheng Ren,  Yihan Shao,  L. V. Slipchenko,  
 R. P. Steele,  J. E. Subotnik,  A. J. W. Thom,  A. Tkatchenko,  
 D. G. Truhlar,  T. Van Voorhis,  Fan Wang,  T. A. Wesolowski,  K. B. Whaley,  
 H. L. Woodcock III,  P. M. Zimmerman,  S. Faraji,  P. M. W. Gill,  
 M. Head-Gordon,  J. M. Herbert,  A. I. Krylov

 Contributors to earlier versions of Q-Chem not listed above: 
 R. D. Adamson,  B. Austin,  R. Baer,  J. Baker,  G. J. O. Beran,  
 K. Brandhorst,  S. T. Brown,  E. F. C. Byrd,  Arup K. Chakraborty,  
 G. K. L. Chan,  Chun-Min Chang,  Yunqing Chen,  C.-L. Cheng,  
 Siu Hung Chien,  D. M. Chipman,  D. L. Crittenden,  H. Dachsel,  
 R. J. Doerksen,  A. D. Dutoi,  R. G. Edgar,  J. Fosso-Tande,  
 L. Fusti-Molnar,  D. Ghosh,  A. Ghysels,  A. Golubeva-Zadorozhnaya,  
 J. Gonthier,  M. S. Gordon,  S. R. Gwaltney,  G. Hawkins,  J. E. Herr,  
 A. Heyden,  S. Hirata,  E. G. Hohenstein,  G. Kedziora,  F. J. Keil,  
 C. Kelley,  Jihan Kim,  R. A. King,  R. Z. Khaliullin,  P. P. Korambath,  
 W. Kurlancheek,  A. Laurent,  A. M. Lee,  M. S. Lee,  S. V. Levchenko,  
 Ching Yeh Lin,  D. Liotard,  E. Livshits,  R. C. Lochan,  I. Lotan,  
 L. A. Martinez-Martinez,  P. E. Maslen,  N. Nair,  D. P. O'Neill,  
 D. Neuhauser,  E. Neuscamman,  C. M. Oana,  R. Olivares-Amaya,  R. Olson,  
 T. M. Perrine,  B. Peters,  P. A. Pieniazek,  A. Prociuk,  Y. M. Rhee,  
 J. Ritchie,  M. A. Rohrdanz,  E. Rosta,  N. J. Russ,  H. F. Schaefer III,  
 M. W. Schmidt,  N. E. Schultz,  S. Sharma,  N. Shenvi,  C. D. Sherrill,  
 A. C. Simmonett,  A. Sodt,  T. Stein,  D. Stuck,  K. S. Thanthiriwatte,  
 V. Vanovschi,  L. Vogt,  Tao Wang,  A. Warshel,  M. A. Watson,  
 C. F. Williams,  Q. Wu,  X. Xu,  Jun Yang,  W. Zhang,  Yan Zhao

   Please cite Q-Chem as follows:
  "Software for the frontiers of quantum chemistry:
   An overview of developments in the Q-Chem 5 package"
   J. Chem. Phys. 155, 084801 (2021)
   https://doi.org/10.1063/5.0055522 (open access)

 Q-Chem 6.2.1 for Intel X86 EM64T Linux

 Parts of Q-Chem use Armadillo 9.900.5 (Nocturnal Misbehaviour).
 http://arma.sourceforge.net/

 Q-Chem begins on Wed Dec 11 10:54:19 2024  

orc23
 Host: 0

     Scratch files written to /scratch/jia/qchem28012//
 Processing $rem in /qcsoftware/qchem_latest/config/preferences:
 Processing $rem in /home/users/jia/.qchemrc:
 Core orbitals will be frozen

 Checking the input file for inconsistencies... 	...done.

--------------------------------------------------------------
User input:
--------------------------------------------------------------
$molecule
0 1
  C   -2.6961826    1.1433381    0.1184257
  C   -3.4590707    0.6920778   -1.1014268
  C   -3.4590707   -0.6920778   -1.1014268
  H   -3.8362765    1.3399853   -1.9003851
  C   -2.6961826   -1.1433381    0.1184257
  H   -3.8362765   -1.3399853   -1.9003851
  C   -1.2081430   -0.7915026   -0.3440731
  C   -3.0763550    0.0000000    1.0955812
  H   -2.8388139   -2.1856000    0.4362700
  C   -1.2081430    0.7915026   -0.3440731
  C    0.0000000   -1.1459453    0.5839444
  H   -1.0440884   -1.2307879   -1.3412739
  C    0.0000000    1.1459453    0.5839444
  H   -1.0440884    1.2307879   -1.3412739
  H   -2.8388139    2.1856000    0.4362700
  C    1.2081430    0.7915026   -0.3440731
  C    1.2081430   -0.7915026   -0.3440731
  C    0.0000000    0.0000000    1.6196214
  C    2.6961826    1.1433381    0.1184257
  C    2.6961826   -1.1433381    0.1184257
  C    3.4590707   -0.6920778   -1.1014268
  C    3.4590707    0.6920778   -1.1014268
  C    3.0763550    0.0000000    1.0955812
  H   -2.5547628    0.0000000    2.0564068
  H   -4.1601901    0.0000000    1.2958578
  H    0.0000000   -2.1790941    0.9649555
  H    0.0000000    2.1790941    0.9649555
  H    1.0440884    1.2307879   -1.3412739
  H    1.0440884   -1.2307879   -1.3412739
  H    0.8696055    0.0000000    2.2824280
  H   -0.8696055    0.0000000    2.2824280
  H    2.8388139    2.1856000    0.4362700
  H    2.8388139   -2.1856000    0.4362700
  H    3.8362765   -1.3399853   -1.9003851
  H    3.8362765    1.3399853   -1.9003851
  H    4.1601901    0.0000000    1.2958578
  H    2.5547628    0.0000000    2.0564068
$end

$rem
   BASIS = cc-pvdz
   GUI  =  2
   MEM_TOTAL  =  100000
   METHOD  =  EOM-CCSD
   SCF_CONVERGENCE  =  8
   IP_STATES = [4,3,4,4]
   CC_TRANS_PROP = 2
   CALC_SOC = 1
$end
--------------------------------------------------------------
 ----------------------------------------------------------------
             Standard Nuclear Orientation (Angstroms)
    I     Atom           X                Y                Z
 ----------------------------------------------------------------
    1      C      -2.6961826000     1.1433381000     0.1184257410
    2      C      -3.4590707000     0.6920778000    -1.1014267590
    3      C      -3.4590707000    -0.6920778000    -1.1014267590
    4      H      -3.8362765000     1.3399853000    -1.9003850590
    5      C      -2.6961826000    -1.1433381000     0.1184257410
    6      H      -3.8362765000    -1.3399853000    -1.9003850590
    7      C      -1.2081430000    -0.7915026000    -0.3440730590
    8      C      -3.0763550000     0.0000000000     1.0955812410
    9      H      -2.8388139000    -2.1856000000     0.4362700410
   10      C      -1.2081430000     0.7915026000    -0.3440730590
   11      C       0.0000000000    -1.1459453000     0.5839444410
   12      H      -1.0440884000    -1.2307879000    -1.3412738590
   13      C       0.0000000000     1.1459453000     0.5839444410
   14      H      -1.0440884000     1.2307879000    -1.3412738590
   15      H      -2.8388139000     2.1856000000     0.4362700410
   16      C       1.2081430000     0.7915026000    -0.3440730590
   17      C       1.2081430000    -0.7915026000    -0.3440730590
   18      C       0.0000000000     0.0000000000     1.6196214410
   19      C       2.6961826000     1.1433381000     0.1184257410
   20      C       2.6961826000    -1.1433381000     0.1184257410
   21      C       3.4590707000    -0.6920778000    -1.1014267590
   22      C       3.4590707000     0.6920778000    -1.1014267590
   23      C       3.0763550000     0.0000000000     1.0955812410
   24      H      -2.5547628000     0.0000000000     2.0564068410
   25      H      -4.1601901000     0.0000000000     1.2958578410
   26      H      -0.0000000000    -2.1790941000     0.9649555410
   27      H       0.0000000000     2.1790941000     0.9649555410
   28      H       1.0440884000     1.2307879000    -1.3412738590
   29      H       1.0440884000    -1.2307879000    -1.3412738590
   30      H       0.8696055000     0.0000000000     2.2824280410
   31      H      -0.8696055000     0.0000000000     2.2824280410
   32      H       2.8388139000     2.1856000000     0.4362700410
   33      H       2.8388139000    -2.1856000000     0.4362700410
   34      H       3.8362765000    -1.3399853000    -1.9003850590
   35      H       3.8362765000     1.3399853000    -1.9003850590
   36      H       4.1601901000     0.0000000000     1.2958578410
   37      H       2.5547628000     0.0000000000     2.0564068410
 ----------------------------------------------------------------
 Molecular Point Group                 C2v   NOp =  4
 Largest Abelian Subgroup              C2v   NOp =  4
 Nuclear Repulsion Energy =        1258.61296348 hartrees
 There are       61 alpha and       61 beta electrons
 Requested basis set is cc-pVDZ
 There are 162 shells and 338 basis functions
 Total memory of 100000 MB is distributed as follows: 
   MEM_STATIC is set to 192 MB
   QALLOC/CCMAN JOB total memory use is  99808 MB
 Warning: actual memory use might exceed 100000 MB

 Total QAlloc Memory Limit 100000 MB
 Mega-Array Size       188 MB
 MEM_STATIC part       192 MB

 A cutoff of  1.0D-14 yielded  11822 shell pairs
 There are     50878 function pairs (     56057 Cartesian)
 Smallest overlap matrix eigenvalue = 7.95E-04

 Scale SEOQF with 1.000000e-01/1.000000e-01/1.000000e-01

 Standard Electronic Orientation quadrupole field applied
 Nucleus-field energy     =     0.0000000231 hartrees
 Guess from superposition of atomic densities
 Warning:  Energy on first SCF cycle will be non-variational
 SAD guess density has 122.000000 electrons

 -----------------------------------------------------------------------
  General SCF calculation program by
  Eric Jon Sundstrom, Paul Horn, Yuezhi Mao, Dmitri Zuev, Alec White,
  David Stuck, Shaama M.S., Shane Yost, Joonho Lee, David Small,
  Daniel Levine, Susi Lehtola, Hugh Burton, Evgeny Epifanovsky,
  Bang C. Huynh
 -----------------------------------------------------------------------
 Hartree-Fock
 using 12 threads for integral computing
 -------------------------------------------------------
 OpenMP Integral computing Module                
 Release: version 1.0, May 2013, Q-Chem Inc. Pittsburgh 
 -------------------------------------------------------
 A restricted SCF calculation will be
 performed using DIIS
 SCF converges when DIIS error is below 1.0e-08
 ---------------------------------------
  Cycle       Energy         DIIS error
 ---------------------------------------
    1    -663.4311502485      4.37e-02  
    2    -655.1316966545      2.88e-03  
    3    -655.3163423278      7.86e-04  
    4    -655.3311228727      2.99e-04  
    5    -655.3325031671      4.35e-05  
    6    -655.3325584945      1.86e-05  
    7    -655.3325658093      4.15e-06  
    8    -655.3325665100      1.54e-06  
    9    -655.3325665733      5.12e-07  
   10    -655.3325665806      1.05e-07  
   11    -655.3325665812      2.70e-08  
   12    -655.3325665813      7.34e-09  Convergence criterion met
 ---------------------------------------
 SCF time:   CPU 645.85s  wall 63.00s 
 SCF   energy =  -655.33256658
 Total energy =  -655.33256658


 ------------------------------------------------------------------------------

   CCMAN2: suite of methods based on coupled cluster
           and equation of motion theories.

   Components:
   * libvmm-1.3-trunk
     by Evgeny Epifanovsky, Ilya Kaliman.
   * libtensor-2.5-trunk
     by Evgeny Epifanovsky, Michael Wormit, Dmitry Zuev, Sam Manzer, 
        Ilya Kaliman.
   * libcc-2.5-trunk
     by Evgeny Epifanovsky, Arik Landau, Tomasz Kus, Kirill Khistyaev, 
        Dmitry Zuev, Prashant Manohar, Xintian Feng, Anna Krylov, 
        Matthew Goldey, Alec White, Thomas Jagau, Kaushik Nanda, 
        Anastasia Gunina, Alexander Kunitsa, Joonho Lee.

   CCMAN original authors:
   Anna I. Krylov, C. David Sherrill, Steven R. Gwaltney,
   Edward F. C. Byrd (2000)
   Sergey V. Levchenko, Lyudmila V. Slipchenko, Tao Wang,
   Ana-Maria C. Cristian (2003)
   Piotr A. Pieniazek, C. Melania Oana, Evgeny Epifanovsky (2007)
   Prashant Manohar (2009)

 ------------------------------------------------------------------------------


 Allocating and initializing 99808MB of RAM...
 Calculation will run on 12 cores.


 Alpha MOs, Restricted
 -- Occupied --                  
-11.232 -11.232 -11.232 -11.232 -11.228 -11.228 -11.227 -11.227
  1 B1    1 A1    1 B2    1 A2    2 A1    2 B1    3 B1    3 A1                 
-11.227 -11.227 -11.226 -11.226 -11.225 -11.225 -11.222 -11.222
  2 B2    2 A2    3 B2    3 A2    4 A1    4 B2    4 B1    5 A1                 
-11.214  -1.192  -1.166  -1.111  -1.003  -0.971  -0.966  -0.948
  6 A1    7 A1    5 B1    8 A1    5 B2    6 B1    4 A2    9 A1                 
 -0.942  -0.934  -0.913  -0.784  -0.759  -0.754  -0.744  -0.718
 10 A1    7 B1    6 B2   11 A1    5 A2    8 B1   12 A1    7 B2                 
 -0.707  -0.694  -0.689  -0.685  -0.651  -0.639  -0.634  -0.576
  8 B2    6 A2   13 A1    9 B1   14 A1   10 B1   15 A1   11 B1                 
 -0.551  -0.531  -0.527  -0.520  -0.517  -0.511  -0.497  -0.487
 12 B1   16 A1    9 B2    7 A2   13 B1   17 A1   10 B2   18 A1                 
 -0.485  -0.478  -0.466  -0.461  -0.450  -0.445  -0.437  -0.426
  8 A2   11 B2   14 B1   19 A1   12 B2   15 B1    9 A2   13 B2                 
 -0.421  -0.419  -0.390  -0.326  -0.310
 16 B1   20 A1   10 A2   21 A1   17 B1                                         
 -- Virtual --                   
  0.165   0.171   0.178   0.198   0.210   0.212   0.222   0.233
 14 B2   11 A2   22 A1   18 B1   23 A1   15 B2   24 A1   12 A2                 
  0.233   0.238   0.239   0.242   0.244   0.255   0.261   0.264
 19 B1   16 B2   25 A1   20 B1   26 A1   13 A2   17 B2   21 B1                 
  0.278   0.290   0.302   0.321   0.332   0.335   0.338   0.341
 27 A1   18 B2   22 B1   19 B2   28 A1   14 A2   29 A1   23 B1                 
  0.349   0.366   0.377   0.378   0.391   0.394   0.416   0.417
 30 A1   15 A2   24 B1   20 B2   31 A1   16 A2   25 B1   32 A1                 
  0.417   0.418   0.423   0.457   0.469   0.474   0.478   0.481
 17 A2   21 B2   26 B1   33 A1   22 B2   23 B2   18 A2   27 B1                 
  0.494   0.526   0.562   0.577   0.591   0.600   0.620   0.626
 24 B2   19 A2   20 A2   25 B2   34 A1   28 B1   35 A1   29 B1                 
  0.636   0.648   0.662   0.675   0.710   0.718   0.724   0.733
 36 A1   30 B1   31 B1   37 A1   38 A1   26 B2   39 A1   21 A2                 
  0.748   0.753   0.759   0.760   0.769   0.785   0.814   0.814
 32 B1   27 B2   33 B1   22 A2   40 A1   28 B2   34 B1   41 A1                 
  0.815   0.816   0.830   0.832   0.833   0.834   0.838   0.845
 29 B2   23 A2   30 B2   42 A1   24 A2   35 B1   31 B2   25 A2                 
  0.850   0.855   0.862   0.867   0.871   0.877   0.880   0.891
 43 A1   44 A1   36 B1   45 A1   32 B2   37 B1   33 B2   38 B1                 
  0.895   0.898   0.904   0.908   0.912   0.917   0.920   0.920
 26 A2   46 A1   34 B2   47 A1   27 A2   39 B1   35 B2   40 B1                 
  0.931   0.933   0.948   0.961   0.968   0.979   0.980   0.994
 28 A2   48 A1   36 B2   41 B1   49 A1   29 A2   37 B2   30 A2                 
  0.998   1.006   1.022   1.024   1.055   1.058   1.066   1.068
 42 B1   38 B2   50 A1   51 A1   39 B2   43 B1   31 A2   52 A1                 
  1.082   1.096   1.125   1.142   1.152   1.156   1.163   1.177
 53 A1   44 B1   54 A1   45 B1   32 A2   40 B2   55 A1   33 A2                 
  1.200   1.216   1.225   1.239   1.259   1.291   1.303   1.341
 41 B2   56 A1   46 B1   34 A2   47 B1   42 B2   57 A1   48 B1                 
  1.353   1.358   1.359   1.394   1.394   1.413   1.419   1.437
 35 A2   58 A1   43 B2   36 A2   59 A1   49 B1   44 B2   50 B1                 
  1.478   1.483   1.502   1.508   1.553   1.589   1.600   1.601
 60 A1   37 A2   51 B1   61 A1   45 B2   38 A2   52 B1   62 A1                 
  1.610   1.615   1.639   1.645   1.675   1.678   1.688   1.706
 46 B2   53 B1   39 A2   63 A1   54 B1   47 B2   40 A2   64 A1                 
  1.717   1.737   1.759   1.760   1.772   1.781   1.784   1.785
 55 B1   65 A1   56 B1   66 A1   67 A1   68 A1   57 B1   41 A2                 
  1.794   1.795   1.817   1.817   1.827   1.832   1.844   1.845
 48 B2   58 B1   49 B2   42 A2   50 B2   69 A1   51 B2   59 B1                 
  1.861   1.872   1.876   1.888   1.891   1.901   1.906   1.923
 43 A2   60 B1   70 A1   52 B2   44 A2   61 B1   45 A2   71 A1                 
  1.929   1.937   1.939   1.954   1.963   1.973   1.984   1.986
 53 B2   62 B1   54 B2   72 A1   63 B1   55 B2   73 A1   46 A2                 
  1.998   2.013   2.018   2.039   2.040   2.048   2.049   2.054
 74 A1   47 A2   64 B1   75 A1   56 B2   48 A2   57 B2   65 B1                 
  2.054   2.065   2.066   2.083   2.086   2.098   2.101   2.122
 76 A1   58 B2   49 A2   77 A1   66 B1   78 A1   67 B1   50 A2                 
  2.123   2.151   2.153   2.162   2.173   2.174   2.181   2.189
 68 B1   69 B1   59 B2   79 A1   51 A2   60 B2   61 B2   80 A1                 
  2.190   2.190   2.200   2.222   2.226   2.236   2.242   2.259
 62 B2   52 A2   81 A1   70 B1   82 A1   63 B2   71 B1   53 A2                 
  2.267   2.286   2.292   2.293   2.297   2.322   2.333   2.338
 72 B1   54 A2   83 A1   64 B2   55 A2   84 A1   56 A2   65 B2                 
  2.365   2.365   2.383   2.398   2.404   2.407   2.430   2.432
 73 B1   66 B2   74 B1   67 B2   85 A1   57 A2   86 A1   68 B2                 
  2.441   2.450   2.463   2.465   2.475   2.475   2.483   2.509
 75 B1   58 A2   87 A1   76 B1   59 A2   77 B1   69 B2   78 B1                 
  2.510   2.519   2.541   2.578   2.583   2.591   2.608   2.616
 60 A2   88 A1   70 B2   89 A1   90 A1   61 A2   79 B1   91 A1                 
  2.620   2.624   2.644   2.652   2.656   2.665   2.686   2.688
 71 B2   72 B2   80 B1   92 A1   62 A2   63 A2   73 B2   81 B1                 
  2.690   2.732   2.734   2.767   2.797   2.814   2.827   2.840
 93 A1   64 A2   74 B2   75 B2   65 A2   94 A1   82 B1   76 B2                 
  2.850   2.875   2.887   2.908   2.914   2.934   2.936   2.983
 83 B1   95 A1   66 A2   84 B1   96 A1   77 B2   67 A2   97 A1                 
  3.032   3.038   3.057   3.070   3.109   3.110   3.126   3.153
 78 B2   98 A1   68 A2   85 B1   69 A2   99 A1   86 B1  100 A1                 
  3.154   3.165   3.190   3.526   3.528
 79 B2   87 B1   80 B2   70 A2   81 B2                                         

 Beta MOs, Restricted
 -- Occupied --                  
-11.232 -11.232 -11.232 -11.232 -11.228 -11.228 -11.227 -11.227
  1 B1    1 A1    1 B2    1 A2    2 A1    2 B1    3 B1    3 A1                 
-11.227 -11.227 -11.226 -11.226 -11.225 -11.225 -11.222 -11.222
  2 B2    2 A2    3 B2    3 A2    4 A1    4 B2    4 B1    5 A1                 
-11.214  -1.192  -1.166  -1.111  -1.003  -0.971  -0.966  -0.948
  6 A1    7 A1    5 B1    8 A1    5 B2    6 B1    4 A2    9 A1                 
 -0.942  -0.934  -0.913  -0.784  -0.759  -0.754  -0.744  -0.718
 10 A1    7 B1    6 B2   11 A1    5 A2    8 B1   12 A1    7 B2                 
 -0.707  -0.694  -0.689  -0.685  -0.651  -0.639  -0.634  -0.576
  8 B2    6 A2   13 A1    9 B1   14 A1   10 B1   15 A1   11 B1                 
 -0.551  -0.531  -0.527  -0.520  -0.517  -0.511  -0.497  -0.487
 12 B1   16 A1    9 B2    7 A2   13 B1   17 A1   10 B2   18 A1                 
 -0.485  -0.478  -0.466  -0.461  -0.450  -0.445  -0.437  -0.426
  8 A2   11 B2   14 B1   19 A1   12 B2   15 B1    9 A2   13 B2                 
 -0.421  -0.419  -0.390  -0.326  -0.310
 16 B1   20 A1   10 A2   21 A1   17 B1                                         
 -- Virtual --                   
  0.165   0.171   0.178   0.198   0.210   0.212   0.222   0.233
 14 B2   11 A2   22 A1   18 B1   23 A1   15 B2   24 A1   12 A2                 
  0.233   0.238   0.239   0.242   0.244   0.255   0.261   0.264
 19 B1   16 B2   25 A1   20 B1   26 A1   13 A2   17 B2   21 B1                 
  0.278   0.290   0.302   0.321   0.332   0.335   0.338   0.341
 27 A1   18 B2   22 B1   19 B2   28 A1   14 A2   29 A1   23 B1                 
  0.349   0.366   0.377   0.378   0.391   0.394   0.416   0.417
 30 A1   15 A2   24 B1   20 B2   31 A1   16 A2   25 B1   32 A1                 
  0.417   0.418   0.423   0.457   0.469   0.474   0.478   0.481
 17 A2   21 B2   26 B1   33 A1   22 B2   23 B2   18 A2   27 B1                 
  0.494   0.526   0.562   0.577   0.591   0.600   0.620   0.626
 24 B2   19 A2   20 A2   25 B2   34 A1   28 B1   35 A1   29 B1                 
  0.636   0.648   0.662   0.675   0.710   0.718   0.724   0.733
 36 A1   30 B1   31 B1   37 A1   38 A1   26 B2   39 A1   21 A2                 
  0.748   0.753   0.759   0.760   0.769   0.785   0.814   0.814
 32 B1   27 B2   33 B1   22 A2   40 A1   28 B2   34 B1   41 A1                 
  0.815   0.816   0.830   0.832   0.833   0.834   0.838   0.845
 29 B2   23 A2   30 B2   42 A1   24 A2   35 B1   31 B2   25 A2                 
  0.850   0.855   0.862   0.867   0.871   0.877   0.880   0.891
 43 A1   44 A1   36 B1   45 A1   32 B2   37 B1   33 B2   38 B1                 
  0.895   0.898   0.904   0.908   0.912   0.917   0.920   0.920
 26 A2   46 A1   34 B2   47 A1   27 A2   39 B1   35 B2   40 B1                 
  0.931   0.933   0.948   0.961   0.968   0.979   0.980   0.994
 28 A2   48 A1   36 B2   41 B1   49 A1   29 A2   37 B2   30 A2                 
  0.998   1.006   1.022   1.024   1.055   1.058   1.066   1.068
 42 B1   38 B2   50 A1   51 A1   39 B2   43 B1   31 A2   52 A1                 
  1.082   1.096   1.125   1.142   1.152   1.156   1.163   1.177
 53 A1   44 B1   54 A1   45 B1   32 A2   40 B2   55 A1   33 A2                 
  1.200   1.216   1.225   1.239   1.259   1.291   1.303   1.341
 41 B2   56 A1   46 B1   34 A2   47 B1   42 B2   57 A1   48 B1                 
  1.353   1.358   1.359   1.394   1.394   1.413   1.419   1.437
 35 A2   58 A1   43 B2   36 A2   59 A1   49 B1   44 B2   50 B1                 
  1.478   1.483   1.502   1.508   1.553   1.589   1.600   1.601
 60 A1   37 A2   51 B1   61 A1   45 B2   38 A2   52 B1   62 A1                 
  1.610   1.615   1.639   1.645   1.675   1.678   1.688   1.706
 46 B2   53 B1   39 A2   63 A1   54 B1   47 B2   40 A2   64 A1                 
  1.717   1.737   1.759   1.760   1.772   1.781   1.784   1.785
 55 B1   65 A1   56 B1   66 A1   67 A1   68 A1   57 B1   41 A2                 
  1.794   1.795   1.817   1.817   1.827   1.832   1.844   1.845
 48 B2   58 B1   49 B2   42 A2   50 B2   69 A1   51 B2   59 B1                 
  1.861   1.872   1.876   1.888   1.891   1.901   1.906   1.923
 43 A2   60 B1   70 A1   52 B2   44 A2   61 B1   45 A2   71 A1                 
  1.929   1.937   1.939   1.954   1.963   1.973   1.984   1.986
 53 B2   62 B1   54 B2   72 A1   63 B1   55 B2   73 A1   46 A2                 
  1.998   2.013   2.018   2.039   2.040   2.048   2.049   2.054
 74 A1   47 A2   64 B1   75 A1   56 B2   48 A2   57 B2   65 B1                 
  2.054   2.065   2.066   2.083   2.086   2.098   2.101   2.122
 76 A1   58 B2   49 A2   77 A1   66 B1   78 A1   67 B1   50 A2                 
  2.123   2.151   2.153   2.162   2.173   2.174   2.181   2.189
 68 B1   69 B1   59 B2   79 A1   51 A2   60 B2   61 B2   80 A1                 
  2.190   2.190   2.200   2.222   2.226   2.236   2.242   2.259
 62 B2   52 A2   81 A1   70 B1   82 A1   63 B2   71 B1   53 A2                 
  2.267   2.286   2.292   2.293   2.297   2.322   2.333   2.338
 72 B1   54 A2   83 A1   64 B2   55 A2   84 A1   56 A2   65 B2                 
  2.365   2.365   2.383   2.398   2.404   2.407   2.430   2.432
 73 B1   66 B2   74 B1   67 B2   85 A1   57 A2   86 A1   68 B2                 
  2.441   2.450   2.463   2.465   2.475   2.475   2.483   2.509
 75 B1   58 A2   87 A1   76 B1   59 A2   77 B1   69 B2   78 B1                 
  2.510   2.519   2.541   2.578   2.583   2.591   2.608   2.616
 60 A2   88 A1   70 B2   89 A1   90 A1   61 A2   79 B1   91 A1                 
  2.620   2.624   2.644   2.652   2.656   2.665   2.686   2.688
 71 B2   72 B2   80 B1   92 A1   62 A2   63 A2   73 B2   81 B1                 
  2.690   2.732   2.734   2.767   2.797   2.814   2.827   2.840
 93 A1   64 A2   74 B2   75 B2   65 A2   94 A1   82 B1   76 B2                 
  2.850   2.875   2.887   2.908   2.914   2.934   2.936   2.983
 83 B1   95 A1   66 A2   84 B1   96 A1   77 B2   67 A2   97 A1                 
  3.032   3.038   3.057   3.070   3.109   3.110   3.126   3.153
 78 B2   98 A1   68 A2   85 B1   69 A2   99 A1   86 B1  100 A1                 
  3.154   3.165   3.190   3.526   3.528
 79 B2   87 B1   80 B2   70 A2   81 B2                                         

 Occupation and symmetry of molecular orbitals

 Point group: C2v (4 irreducible representations).

                           A1   A2   B1   B2    All 
 ----------------------------------------------------
 All molecular orbitals:
  - Alpha                  100  70   87   81    338 
  - Beta                   100  70   87   81    338 
 ----------------------------------------------------
 Alpha orbitals:
  - Frozen occupied        6    3    4    4     17  
  - Active occupied        15   7    13   9     44  
  - Active virtual         79   60   70   68    277 
  - Frozen virtual         0    0    0    0     0   
 ----------------------------------------------------
 Beta orbitals:
  - Frozen occupied        6    3    4    4     17  
  - Active occupied        15   7    13   9     44  
  - Active virtual         79   60   70   68    277 
  - Frozen virtual         0    0    0    0     0   
 ----------------------------------------------------

 Import integrals:   CPU 0.00 s  wall 0.00 s

 Import integrals:   CPU 2514.95 s  wall 237.35 s


 MP2  CPU 8.93 s  wall 5.84 s
Running a double precision version
           CCSD T amplitudes will be solved using DIIS.

           Start     Size      MaxIter   EConv     TConv     
           3         7         100       1.00e-06  1.00e-04  
 ------------------------------------------------------------------------------
           Energy (a.u.)   Ediff      Tdiff       Comment
 ------------------------------------------------------------------------------
          -657.68188773                           
     1    -657.72422379   4.23e-02   1.54e+00     
     2    -657.78944536   6.52e-02   2.03e-01     
     3    -657.79511604   5.67e-03   6.26e-02     
     4    -657.80125975   6.14e-03   2.13e-02     Switched to DIIS steps.
     5    -657.80327145   2.01e-03   1.43e-02     
     6    -657.80337875   1.07e-04   3.02e-03     
     7    -657.80336400   1.48e-05   1.43e-03     
     8    -657.80335841   5.59e-06   3.28e-04     
     9    -657.80335806   3.47e-07   1.36e-04     
    10    -657.80335788   1.86e-07   3.03e-05     
 ------------------------------------------------------------------------------
          -657.80335788                           CCSD T converged.

 End of double precision
 SCF energy                 = -655.33256658
 MP2 energy                 = -657.68188773
 CCSD correlation energy    =   -2.47079129
 CCSD total energy          = -657.80335788

 CCSD  T1^2 = 0.0170  T2^2 = 0.9673  Leading amplitudes:

 Amplitude    Orbitals with energies
 -0.0181       17 (B1) A                 ->    32 (B1) A                  
              -0.3098                          0.7482                     
 -0.0181       17 (B1) B                 ->    32 (B1) B                  
              -0.3098                          0.7482                     
  0.0177       10 (A2) A                 ->    11 (A2) A                  
              -0.3898                          0.1709                     
  0.0177       10 (A2) B                 ->    11 (A2) B                  
              -0.3898                          0.1709                     

 Amplitude    Orbitals with energies
 -0.0583       21 (A1) A     21 (A1) B   ->    14 (B2) A     14 (B2) B    
              -0.3258       -0.3258            0.1653        0.1653       
  0.0583       21 (A1) A     21 (A1) B   ->    14 (B2) B     14 (B2) A    
              -0.3258       -0.3258            0.1653        0.1653       
  0.0583       21 (A1) B     21 (A1) A   ->    14 (B2) A     14 (B2) B    
              -0.3258       -0.3258            0.1653        0.1653       
 -0.0583       21 (A1) B     21 (A1) A   ->    14 (B2) B     14 (B2) A    
              -0.3258       -0.3258            0.1653        0.1653       

 Computing CCSD intermediates for later calculations in double precision
 Finished.

Running a double precision version
           CCSD Lambda amplitudes will be solved using DIIS.
           Start     Size      MaxIter   EConv     LConv     
           3         7         100       1.00e-06  1.00e-04  
 ------------------------------------------------------------------------------
            Enorm      Ldiff       Comment
 ------------------------------------------------------------------------------
     1     7.29e-02   6.26e-02     
     2     1.25e-02   4.37e-03     
     3     4.75e-03   2.36e-03     
     4     1.76e-03   8.48e-04     Switched to DIIS steps.
     5     6.21e-04   2.70e-04     
     6     2.68e-04   6.32e-05     
     7     7.74e-05   1.00e-05     
     8     3.39e-05   6.58e-07     
     9     1.18e-05   9.02e-07     
    10     4.69e-06   4.06e-07     
    11     1.79e-06   1.29e-07     
    12     6.22e-07   6.60e-08     
 ------------------------------------------------------------------------------
                                   CCSD Lambda converged.

 Reference state properties
S^2 calculation will be performed in  double precision
 <S^2> = 0.000000


 CCSD  CPU 12112.16 s  wall 1065.54 s
        Solving for EOMIP-CCSD A1 transitions.

Running a double precision version
      EOMIP-CCSD/MP2 right amplitudes will be solved using Davidson.
        Amplitudes will be solved using standard  algorithm.
     Hard-coded thresholds: 
     LinDepThresh=1.00e-15  NormThresh=1.00e-06  ReorthogonThresh=1.00e-02

      Roots     MaxVec    MaxIter   Precond   Conv      Shift    
      4         120       60        1         1.00e-05  0.00e+00  
 ------------------------------------------------------------------------------
      Iter ConvRoots NVecs ResNorm^2 Current eigenvalues (eV)
 ------------------------------------------------------------------------------
      0    0      4     1.31e-01   11.0218   13.2531   14.2755   14.9030   
      1    0      8     1.82e-02   8.9164   10.4807   11.4131   12.1869   
      2    0      12    7.32e-04   8.5808   10.1212   11.0259   11.8033   
Found complex roots...
      3    0      16    8.22e-05   8.5636   10.1077   11.0071   11.7790   
      4    2      20    1.33e-05   8.5631   10.1082*  11.0078*  11.7778   
      5    4      22    5.15e-06   8.5626*  10.1082*  11.0077*  11.7769*  

     Davidson procedure converged

 EOMIP transition 1/A1
 Total energy = -657.48868994 a.u.  Excitation energy = 8.5626 eV.
 R1^2 = 0.9380  R2^2 = 0.0620  Res^2 = 1.48e-06
 Conv-d = yes

 Amplitude    Transitions between orbitals
  0.9667       21 (A1) A                 ->    infty        
 -0.0476       17 (A1) A                 ->    infty        
  0.0232       19 (A1) A                 ->    infty        
 -0.0147       11 (A1) A                 ->    infty        

              Summary of significant orbitals:

               Number  Type             Irrep      Energy
               28      Occ  Alpha      11 (A1)     -0.7843
               46      Occ  Alpha      17 (A1)     -0.5113
               52      Occ  Alpha      19 (A1)     -0.4608
               60      Occ  Alpha      21 (A1)     -0.3258


 EOMIP transition 2/A1
 Total energy = -657.43188972 a.u.  Excitation energy = 10.1082 eV.
 R1^2 = 0.9306  R2^2 = 0.0694  Res^2 = 6.67e-06
 Conv-d = yes

 Amplitude    Transitions between orbitals
  0.9636       20 (A1) A                 ->    infty        
  0.0231       18 (A1) A                 ->    infty        
 -0.0221       12 (A1) A                 ->    infty        
 -0.0190       16 (A1) A                 ->    infty        

              Summary of significant orbitals:

               Number  Type             Irrep      Energy
               31      Occ  Alpha      12 (A1)     -0.7441
               42      Occ  Alpha      16 (A1)     -0.5312
               48      Occ  Alpha      18 (A1)     -0.4867
               58      Occ  Alpha      20 (A1)     -0.4187


 EOMIP transition 3/A1
 Total energy = -657.39883084 a.u.  Excitation energy = 11.0077 eV.
 R1^2 = 0.9272  R2^2 = 0.0728  Res^2 = 5.42e-06
 Conv-d = yes

 Amplitude    Transitions between orbitals
 -0.9620       19 (A1) A                 ->    infty        
  0.0237       9 (A1) A                  ->    infty        
  0.0220       21 (A1) A                 ->    infty        
  0.0206       10 (A1) A                 ->    infty        

              Summary of significant orbitals:

               Number  Type             Irrep      Energy
               24      Occ  Alpha       9 (A1)     -0.9481
               25      Occ  Alpha      10 (A1)     -0.9421
               52      Occ  Alpha      19 (A1)     -0.4608
               60      Occ  Alpha      21 (A1)     -0.3258


 EOMIP transition 4/A1
 Total energy = -657.37056536 a.u.  Excitation energy = 11.7769 eV.
 R1^2 = 0.9257  R2^2 = 0.0743  Res^2 = 7.03e-06
 Conv-d = yes

 Amplitude    Transitions between orbitals
  0.9596       18 (A1) A                 ->    infty        
  0.0457       15 (A1) A                 ->    infty        
  0.0315       16 (A1) A                 ->    infty        
 -0.0234       12 (A1) A                 ->    infty        

              Summary of significant orbitals:

               Number  Type             Irrep      Energy
               31      Occ  Alpha      12 (A1)     -0.7441
               39      Occ  Alpha      15 (A1)     -0.6344
               42      Occ  Alpha      16 (A1)     -0.5312
               48      Occ  Alpha      18 (A1)     -0.4867


Running a double precision version
      EOMIP-CCSD/MP2 left amplitudes will be solved using Davidson.
        Amplitudes will be solved using MOM  algorithm.
     Hard-coded thresholds: 
     LinDepThresh=1.00e-15  NormThresh=1.00e-06  ReorthogonThresh=1.00e-02

      Roots     MaxVec    MaxIter   Precond   Conv      Shift    
      4         120       60        1         1.00e-05  0.00e+00  
 ------------------------------------------------------------------------------
      Iter ConvRoots NVecs ResNorm^2 Current eigenvalues (eV)
 ------------------------------------------------------------------------------
      0    0      4     6.32e-03   8.5626   10.1082   11.0077   11.7769   
      1    0      8     6.10e-04   8.5625   10.1077   11.0074   11.7764   
      2    0      12    2.62e-05   8.5624   10.1078   11.0075   11.7764   
      3    3      16    8.34e-06   8.5624*  10.1078*  11.0075   11.7764*  
      4    4      17    2.36e-06   8.5624*  10.1078*  11.0074*  11.7764*  

     Davidson procedure converged

 EOMIP-CCSD transition 1/A1
S^2 calculation will be performed in  double precision
 EOMIP-CCSD transition 2/A1
S^2 calculation will be performed in  double precision
 EOMIP-CCSD transition 3/A1
S^2 calculation will be performed in  double precision
 EOMIP-CCSD transition 4/A1
S^2 calculation will be performed in  double precision
 Excited state properties for  EOMIP-CCSD transition 1/A1
 Dipole moment (a.u.): 0.916973 (X 0.000000, Y 0.000000, Z -0.916973)
 R-squared (a.u.): 3687.212935 (XX 2736.837430, YY 479.718692, ZZ 470.656813)
 Gauge origin (a.u.): (0.000000, 0.000000, 0.000000)
 Angular momentum (a.u.) against gauge origin: 
 (X 0.000000i, Y 0.000000i, Z 0.000000i)
 Traces of the OPDMs: Tr(AA) 60.000000, Tr(BB) 61.000000
 <S^2> = 0.750000

 Excited state properties for  EOMIP-CCSD transition 2/A1
 Dipole moment (a.u.): 0.175120 (X 0.000000, Y 0.000000, Z 0.175120)
 R-squared (a.u.): 3703.830390 (XX 2754.823658, YY 476.846111, ZZ 472.160621)
 Gauge origin (a.u.): (0.000000, 0.000000, 0.000000)
 Angular momentum (a.u.) against gauge origin: 
 (X 0.000000i, Y 0.000000i, Z 0.000000i)
 Traces of the OPDMs: Tr(AA) 60.000000, Tr(BB) 61.000000
 <S^2> = 0.750000

 Excited state properties for  EOMIP-CCSD transition 3/A1
 Dipole moment (a.u.): 0.275276 (X 0.000000, Y 0.000000, Z 0.275276)
 R-squared (a.u.): 3702.819413 (XX 2754.189416, YY 479.010641, ZZ 469.619356)
 Gauge origin (a.u.): (0.000000, 0.000000, 0.000000)
 Angular momentum (a.u.) against gauge origin: 
 (X 0.000000i, Y 0.000000i, Z 0.000000i)
 Traces of the OPDMs: Tr(AA) 60.000000, Tr(BB) 61.000000
 <S^2> = 0.750000

 Excited state properties for  EOMIP-CCSD transition 4/A1
 Dipole moment (a.u.): 0.186853 (X 0.000000, Y 0.000000, Z 0.186853)
 R-squared (a.u.): 3691.222191 (XX 2741.021814, YY 479.429659, ZZ 470.770718)
 Gauge origin (a.u.): (0.000000, 0.000000, 0.000000)
 Angular momentum (a.u.) against gauge origin: 
 (X 0.000000i, Y 0.000000i, Z 0.000000i)
 Traces of the OPDMs: Tr(AA) 60.000000, Tr(BB) 61.000000
 <S^2> = 0.750000

        Solving for EOMIP-CCSD A2 transitions.

Running a double precision version
      EOMIP-CCSD/MP2 right amplitudes will be solved using Davidson.
        Amplitudes will be solved using standard  algorithm.
     Hard-coded thresholds: 
     LinDepThresh=1.00e-15  NormThresh=1.00e-06  ReorthogonThresh=1.00e-02

      Roots     MaxVec    MaxIter   Precond   Conv      Shift    
      3         120       60        1         1.00e-05  0.00e+00  
 ------------------------------------------------------------------------------
      Iter ConvRoots NVecs ResNorm^2 Current eigenvalues (eV)
 ------------------------------------------------------------------------------
      0    0      3     1.43e-01   12.6312   13.7068   14.8877   
      1    0      6     1.89e-02   9.6560   10.9487   12.1179   
      2    0      9     5.75e-04   9.2623   10.5871   11.7421   
      3    0      12    5.49e-05   9.2499   10.5765   11.7244   
      4    2      15    8.38e-06   9.2499   10.5766*  11.7248*  
      5    3      16    4.42e-06   9.2496*  10.5766*  11.7248*  

     Davidson procedure converged

 EOMIP transition 1/A2
 Total energy = -657.46343948 a.u.  Excitation energy = 9.2496 eV.
 R1^2 = 0.9275  R2^2 = 0.0725  Res^2 = 1.53e-06
 Conv-d = yes

 Amplitude    Transitions between orbitals
  0.9624       10 (A2) A                 ->    infty        
  0.0212       6 (A2) A                  ->    infty        
 -0.0182       9 (A2) A                  ->    infty        
 -0.0182       8 (A2) A                  ->    infty        

              Summary of significant orbitals:

               Number  Type             Irrep      Energy
               34      Occ  Alpha       6 (A2)     -0.6942
               49      Occ  Alpha       8 (A2)     -0.4852
               55      Occ  Alpha       9 (A2)     -0.4366
               59      Occ  Alpha      10 (A2)     -0.3898


 EOMIP transition 2/A2
 Total energy = -657.41467626 a.u.  Excitation energy = 10.5766 eV.
 R1^2 = 0.9293  R2^2 = 0.0707  Res^2 = 5.32e-06
 Conv-d = yes

 Amplitude    Transitions between orbitals
 -0.9621       9 (A2) A                  ->    infty        
 -0.0564       8 (A2) A                  ->    infty        
 -0.0185       10 (A2) A                 ->    infty        
  0.0094       6 (A2) A                  ->    infty        

              Summary of significant orbitals:

               Number  Type             Irrep      Energy
               34      Occ  Alpha       6 (A2)     -0.6942
               49      Occ  Alpha       8 (A2)     -0.4852
               55      Occ  Alpha       9 (A2)     -0.4366
               59      Occ  Alpha      10 (A2)     -0.3898


 EOMIP transition 3/A2
 Total energy = -657.37248120 a.u.  Excitation energy = 11.7248 eV.
 R1^2 = 0.9268  R2^2 = 0.0732  Res^2 = 6.41e-06
 Conv-d = yes

 Amplitude    Transitions between orbitals
 -0.9603       8 (A2) A                  ->    infty        
  0.0584       9 (A2) A                  ->    infty        
 -0.0239       4 (A2) A                  ->    infty        
 -0.0181       10 (A2) A                 ->    infty        

              Summary of significant orbitals:

               Number  Type             Irrep      Energy
               23      Occ  Alpha       4 (A2)     -0.9658
               49      Occ  Alpha       8 (A2)     -0.4852
               55      Occ  Alpha       9 (A2)     -0.4366
               59      Occ  Alpha      10 (A2)     -0.3898


Running a double precision version
      EOMIP-CCSD/MP2 left amplitudes will be solved using Davidson.
        Amplitudes will be solved using MOM  algorithm.
     Hard-coded thresholds: 
     LinDepThresh=1.00e-15  NormThresh=1.00e-06  ReorthogonThresh=1.00e-02

      Roots     MaxVec    MaxIter   Precond   Conv      Shift    
      3         120       60        1         1.00e-05  0.00e+00  
 ------------------------------------------------------------------------------
      Iter ConvRoots NVecs ResNorm^2 Current eigenvalues (eV)
 ------------------------------------------------------------------------------
      0    0      3     7.14e-03   9.2496   10.5766   11.7248   
      1    0      6     6.67e-04   9.2496   10.5763   11.7244   
      2    0      9     2.37e-05   9.2496   10.5764   11.7245   
      3    3      12    2.04e-06   9.2497*  10.5764*  11.7244*  

     Davidson procedure converged

 EOMIP-CCSD transition 1/A2
S^2 calculation will be performed in  double precision
 EOMIP-CCSD transition 2/A2
S^2 calculation will be performed in  double precision
 EOMIP-CCSD transition 3/A2
S^2 calculation will be performed in  double precision
 Excited state properties for  EOMIP-CCSD transition 1/A2
 Dipole moment (a.u.): 0.115737 (X 0.000000, Y 0.000000, Z -0.115737)
 R-squared (a.u.): 3699.320848 (XX 2749.240316, YY 477.837181, ZZ 472.243351)
 Gauge origin (a.u.): (0.000000, 0.000000, 0.000000)
 Angular momentum (a.u.) against gauge origin: 
 (X 0.000000i, Y 0.000000i, Z 0.000000i)
 Traces of the OPDMs: Tr(AA) 60.000000, Tr(BB) 61.000000
 <S^2> = 0.750000

 Excited state properties for  EOMIP-CCSD transition 2/A2
 Dipole moment (a.u.): 0.056023 (X 0.000000, Y 0.000000, Z -0.056023)
 R-squared (a.u.): 3698.608224 (XX 2748.579143, YY 478.422987, ZZ 471.606094)
 Gauge origin (a.u.): (0.000000, 0.000000, 0.000000)
 Angular momentum (a.u.) against gauge origin: 
 (X 0.000000i, Y 0.000000i, Z 0.000000i)
 Traces of the OPDMs: Tr(AA) 60.000000, Tr(BB) 61.000000
 <S^2> = 0.750000

 Excited state properties for  EOMIP-CCSD transition 3/A2
 Dipole moment (a.u.): 0.130095 (X 0.000000, Y 0.000000, Z 0.130095)
 R-squared (a.u.): 3697.118897 (XX 2748.110244, YY 476.298063, ZZ 472.710590)
 Gauge origin (a.u.): (0.000000, 0.000000, 0.000000)
 Angular momentum (a.u.) against gauge origin: 
 (X 0.000000i, Y 0.000000i, Z 0.000000i)
 Traces of the OPDMs: Tr(AA) 60.000000, Tr(BB) 61.000000
 <S^2> = 0.750000

        Solving for EOMIP-CCSD B1 transitions.

Running a double precision version
      EOMIP-CCSD/MP2 right amplitudes will be solved using Davidson.
        Amplitudes will be solved using standard  algorithm.
     Hard-coded thresholds: 
     LinDepThresh=1.00e-15  NormThresh=1.00e-06  ReorthogonThresh=1.00e-02

      Roots     MaxVec    MaxIter   Precond   Conv      Shift    
      4         120       60        1         1.00e-05  0.00e+00  
 ------------------------------------------------------------------------------
      Iter ConvRoots NVecs ResNorm^2 Current eigenvalues (eV)
 ------------------------------------------------------------------------------
      0    0      4     1.33e-01   10.6085   13.2602   13.9832   14.4258   
      1    0      8     1.82e-02   8.4054   10.5132   11.1213   11.6559   
      2    0      12    6.16e-04   8.0715   10.1484   10.7406   11.2806   
      3    0      16    6.50e-05   8.0568   10.1346   10.7242   11.2636   
      4    2      20    1.11e-05   8.0571*  10.1344   10.7245   11.2636*  
      5    4      22    5.24e-06   8.0571*  10.1338*  10.7239*  11.2636*  

     Davidson procedure converged

 EOMIP transition 1/B1
 Total energy = -657.50726630 a.u.  Excitation energy = 8.0571 eV.
 R1^2 = 0.9389  R2^2 = 0.0611  Res^2 = 8.29e-06
 Conv-d = yes

 Amplitude    Transitions between orbitals
 -0.9625       17 (B1) A                 ->    infty        
 -0.0861       16 (B1) A                 ->    infty        
  0.0431       14 (B1) A                 ->    infty        
  0.0382       11 (B1) A                 ->    infty        

              Summary of significant orbitals:

               Number  Type             Irrep      Energy
               40      Occ  Alpha      11 (B1)     -0.5761
               51      Occ  Alpha      14 (B1)     -0.4660
               57      Occ  Alpha      16 (B1)     -0.4207
               61      Occ  Alpha      17 (B1)     -0.3098


 EOMIP transition 2/B1
 Total energy = -657.43094610 a.u.  Excitation energy = 10.1338 eV.
 R1^2 = 0.9290  R2^2 = 0.0710  Res^2 = 2.33e-06
 Conv-d = yes

 Amplitude    Transitions between orbitals
 -0.9549       16 (B1) A                 ->    infty        
 -0.0927       15 (B1) A                 ->    infty        
  0.0830       17 (B1) A                 ->    infty        
  0.0271       11 (B1) A                 ->    infty        

              Summary of significant orbitals:

               Number  Type             Irrep      Energy
               40      Occ  Alpha      11 (B1)     -0.5761
               54      Occ  Alpha      15 (B1)     -0.4454
               57      Occ  Alpha      16 (B1)     -0.4207
               61      Occ  Alpha      17 (B1)     -0.3098


 EOMIP transition 3/B1
 Total energy = -657.40926125 a.u.  Excitation energy = 10.7239 eV.
 R1^2 = 0.9273  R2^2 = 0.0727  Res^2 = 2.47e-06
 Conv-d = yes

 Amplitude    Transitions between orbitals
  0.9438       15 (B1) A                 ->    infty        
 -0.1630       14 (B1) A                 ->    infty        
 -0.0841       16 (B1) A                 ->    infty        
  0.0381       17 (B1) A                 ->    infty        

              Summary of significant orbitals:

               Number  Type             Irrep      Energy
               51      Occ  Alpha      14 (B1)     -0.4660
               54      Occ  Alpha      15 (B1)     -0.4454
               57      Occ  Alpha      16 (B1)     -0.4207
               61      Occ  Alpha      17 (B1)     -0.3098


 EOMIP transition 4/B1
 Total energy = -657.38942749 a.u.  Excitation energy = 11.2636 eV.
 R1^2 = 0.9272  R2^2 = 0.0728  Res^2 = 7.87e-06
 Conv-d = yes

 Amplitude    Transitions between orbitals
 -0.9461       14 (B1) A                 ->    infty        
 -0.1635       15 (B1) A                 ->    infty        
 -0.0552       17 (B1) A                 ->    infty        
  0.0363       16 (B1) A                 ->    infty        

              Summary of significant orbitals:

               Number  Type             Irrep      Energy
               51      Occ  Alpha      14 (B1)     -0.4660
               54      Occ  Alpha      15 (B1)     -0.4454
               57      Occ  Alpha      16 (B1)     -0.4207
               61      Occ  Alpha      17 (B1)     -0.3098


Running a double precision version
      EOMIP-CCSD/MP2 left amplitudes will be solved using Davidson.
        Amplitudes will be solved using MOM  algorithm.
     Hard-coded thresholds: 
     LinDepThresh=1.00e-15  NormThresh=1.00e-06  ReorthogonThresh=1.00e-02

      Roots     MaxVec    MaxIter   Precond   Conv      Shift    
      4         120       60        1         1.00e-05  0.00e+00  
 ------------------------------------------------------------------------------
      Iter ConvRoots NVecs ResNorm^2 Current eigenvalues (eV)
 ------------------------------------------------------------------------------
      0    0      4     6.46e-03   8.0571   10.1338   10.7239   11.2636   
      1    0      8     6.10e-04   8.0566   10.1337   10.7237   11.2632   
      2    0      12    2.44e-05   8.0567   10.1337   10.7237   11.2633   
      3    3      16    8.18e-06   8.0567*  10.1337*  10.7237   11.2632*  
      4    3      17    5.39e-06   8.0567*  10.1337*  10.7237   11.2632*  
      5    4      18    2.25e-06   8.0567*  10.1337*  10.7237*  11.2632*  

     Davidson procedure converged

 EOMIP-CCSD transition 1/B1
S^2 calculation will be performed in  double precision
 EOMIP-CCSD transition 2/B1
S^2 calculation will be performed in  double precision
 EOMIP-CCSD transition 3/B1
S^2 calculation will be performed in  double precision
 EOMIP-CCSD transition 4/B1
S^2 calculation will be performed in  double precision
 Excited state properties for  EOMIP-CCSD transition 1/B1
 Dipole moment (a.u.): 0.790238 (X 0.000000, Y 0.000000, Z -0.790238)
 R-squared (a.u.): 3688.990781 (XX 2738.587805, YY 479.514839, ZZ 470.888136)
 Gauge origin (a.u.): (0.000000, 0.000000, 0.000000)
 Angular momentum (a.u.) against gauge origin: 
 (X 0.000000i, Y 0.000000i, Z 0.000000i)
 Traces of the OPDMs: Tr(AA) 60.000000, Tr(BB) 61.000000
 <S^2> = 0.750000

 Excited state properties for  EOMIP-CCSD transition 2/B1
 Dipole moment (a.u.): 0.402956 (X 0.000000, Y 0.000000, Z 0.402956)
 R-squared (a.u.): 3698.979777 (XX 2749.742264, YY 479.052539, ZZ 470.184973)
 Gauge origin (a.u.): (0.000000, 0.000000, 0.000000)
 Angular momentum (a.u.) against gauge origin: 
 (X 0.000000i, Y 0.000000i, Z 0.000000i)
 Traces of the OPDMs: Tr(AA) 60.000000, Tr(BB) 61.000000
 <S^2> = 0.750000

 Excited state properties for  EOMIP-CCSD transition 3/B1
 Dipole moment (a.u.): 0.027254 (X 0.000000, Y 0.000000, Z 0.027254)
 R-squared (a.u.): 3700.026995 (XX 2749.852616, YY 478.103125, ZZ 472.071254)
 Gauge origin (a.u.): (0.000000, 0.000000, 0.000000)
 Angular momentum (a.u.) against gauge origin: 
 (X 0.000000i, Y 0.000000i, Z 0.000000i)
 Traces of the OPDMs: Tr(AA) 60.000000, Tr(BB) 61.000000
 <S^2> = 0.750000

 Excited state properties for  EOMIP-CCSD transition 4/B1
 Dipole moment (a.u.): 0.149600 (X 0.000000, Y 0.000000, Z 0.149600)
 R-squared (a.u.): 3696.036969 (XX 2745.601936, YY 479.548731, ZZ 470.886303)
 Gauge origin (a.u.): (0.000000, 0.000000, 0.000000)
 Angular momentum (a.u.) against gauge origin: 
 (X 0.000000i, Y 0.000000i, Z 0.000000i)
 Traces of the OPDMs: Tr(AA) 60.000000, Tr(BB) 61.000000
 <S^2> = 0.750000

        Solving for EOMIP-CCSD B2 transitions.

Running a double precision version
      EOMIP-CCSD/MP2 right amplitudes will be solved using Davidson.
        Amplitudes will be solved using standard  algorithm.
     Hard-coded thresholds: 
     LinDepThresh=1.00e-15  NormThresh=1.00e-06  ReorthogonThresh=1.00e-02

      Roots     MaxVec    MaxIter   Precond   Conv      Shift    
      4         120       60        1         1.00e-05  0.00e+00  
 ------------------------------------------------------------------------------
      Iter ConvRoots NVecs ResNorm^2 Current eigenvalues (eV)
 ------------------------------------------------------------------------------
      0    0      4     1.39e-01   13.4004   14.0462   14.7545   15.1857   
      1    0      8     1.90e-02   10.6600   11.2602   11.9004   12.3929   
      2    0      12    6.68e-04   10.2989   10.8804   11.4932   12.0052   
      3    0      16    6.65e-05   10.2876   10.8632   11.4747   11.9833   
      4    2      20    1.06e-05   10.2880*  10.8635*  11.4747   11.9837   
      5    4      22    4.54e-06   10.2880*  10.8635*  11.4742*  11.9832*  

     Davidson procedure converged

 EOMIP transition 1/B2
 Total energy = -657.42528069 a.u.  Excitation energy = 10.2880 eV.
 R1^2 = 0.9306  R2^2 = 0.0694  Res^2 = 4.66e-06
 Conv-d = yes

 Amplitude    Transitions between orbitals
  0.9629       13 (B2) A                 ->    infty        
  0.0400       12 (B2) A                 ->    infty        
 -0.0343       10 (B2) A                 ->    infty        
  0.0150       11 (B2) A                 ->    infty        

              Summary of significant orbitals:

               Number  Type             Irrep      Energy
               47      Occ  Alpha      10 (B2)     -0.4971
               50      Occ  Alpha      11 (B2)     -0.4776
               53      Occ  Alpha      12 (B2)     -0.4504
               56      Occ  Alpha      13 (B2)     -0.4262


 EOMIP transition 2/B2
 Total energy = -657.40413107 a.u.  Excitation energy = 10.8635 eV.
 R1^2 = 0.9281  R2^2 = 0.0719  Res^2 = 5.35e-06
 Conv-d = yes

 Amplitude    Transitions between orbitals
 -0.9592       12 (B2) A                 ->    infty        
 -0.0556       10 (B2) A                 ->    infty        
  0.0483       11 (B2) A                 ->    infty        
  0.0372       13 (B2) A                 ->    infty        

              Summary of significant orbitals:

               Number  Type             Irrep      Energy
               47      Occ  Alpha      10 (B2)     -0.4971
               50      Occ  Alpha      11 (B2)     -0.4776
               53      Occ  Alpha      12 (B2)     -0.4504
               56      Occ  Alpha      13 (B2)     -0.4262


 EOMIP transition 3/B2
 Total energy = -657.38168909 a.u.  Excitation energy = 11.4742 eV.
 R1^2 = 0.9241  R2^2 = 0.0759  Res^2 = 3.04e-06
 Conv-d = yes

 Amplitude    Transitions between orbitals
  0.9593       11 (B2) A                 ->    infty        
  0.0496       12 (B2) A                 ->    infty        
 -0.0201       7 (B2) A                  ->    infty        
 -0.0178       13 (B2) A                 ->    infty        

              Summary of significant orbitals:

               Number  Type             Irrep      Energy
               32      Occ  Alpha       7 (B2)     -0.7183
               50      Occ  Alpha      11 (B2)     -0.4776
               53      Occ  Alpha      12 (B2)     -0.4504
               56      Occ  Alpha      13 (B2)     -0.4262


 EOMIP transition 4/B2
 Total energy = -657.36298178 a.u.  Excitation energy = 11.9832 eV.
 R1^2 = 0.9257  R2^2 = 0.0743  Res^2 = 5.14e-06
 Conv-d = yes

 Amplitude    Transitions between orbitals
  0.9588       10 (B2) A                 ->    infty        
 -0.0559       12 (B2) A                 ->    infty        
  0.0385       13 (B2) A                 ->    infty        
 -0.0300       5 (B2) A                  ->    infty        

              Summary of significant orbitals:

               Number  Type             Irrep      Energy
               21      Occ  Alpha       5 (B2)     -1.0030
               47      Occ  Alpha      10 (B2)     -0.4971
               53      Occ  Alpha      12 (B2)     -0.4504
               56      Occ  Alpha      13 (B2)     -0.4262


Running a double precision version
      EOMIP-CCSD/MP2 left amplitudes will be solved using Davidson.
        Amplitudes will be solved using MOM  algorithm.
     Hard-coded thresholds: 
     LinDepThresh=1.00e-15  NormThresh=1.00e-06  ReorthogonThresh=1.00e-02

      Roots     MaxVec    MaxIter   Precond   Conv      Shift    
      4         120       60        1         1.00e-05  0.00e+00  
 ------------------------------------------------------------------------------
      Iter ConvRoots NVecs ResNorm^2 Current eigenvalues (eV)
 ------------------------------------------------------------------------------
      0    0      4     6.95e-03   10.2880   10.8635   11.4742   11.9832   
      1    0      8     6.74e-04   10.2877   10.8631   11.4741   11.9829   
      2    0      12    2.72e-05   10.2878   10.8633   11.4741   11.9828   
      3    4      16    2.52e-06   10.2878*  10.8632*  11.4741*  11.9828*  

     Davidson procedure converged

 EOMIP-CCSD transition 1/B2
S^2 calculation will be performed in  double precision
 EOMIP-CCSD transition 2/B2
S^2 calculation will be performed in  double precision
 EOMIP-CCSD transition 3/B2
S^2 calculation will be performed in  double precision
 EOMIP-CCSD transition 4/B2
S^2 calculation will be performed in  double precision
 Excited state properties for  EOMIP-CCSD transition 1/B2
 Dipole moment (a.u.): 0.211144 (X 0.000000, Y 0.000000, Z 0.211144)
 R-squared (a.u.): 3704.751732 (XX 2756.118443, YY 478.343240, ZZ 470.290049)
 Gauge origin (a.u.): (0.000000, 0.000000, 0.000000)
 Angular momentum (a.u.) against gauge origin: 
 (X 0.000000i, Y 0.000000i, Z 0.000000i)
 Traces of the OPDMs: Tr(AA) 60.000000, Tr(BB) 61.000000
 <S^2> = 0.750000

 Excited state properties for  EOMIP-CCSD transition 2/B2
 Dipole moment (a.u.): 0.237935 (X 0.000000, Y 0.000000, Z 0.237935)
 R-squared (a.u.): 3696.358021 (XX 2747.710425, YY 477.278514, ZZ 471.369082)
 Gauge origin (a.u.): (0.000000, 0.000000, 0.000000)
 Angular momentum (a.u.) against gauge origin: 
 (X 0.000000i, Y 0.000000i, Z 0.000000i)
 Traces of the OPDMs: Tr(AA) 60.000000, Tr(BB) 61.000000
 <S^2> = 0.750000

 Excited state properties for  EOMIP-CCSD transition 3/B2
 Dipole moment (a.u.): 0.093275 (X 0.000000, Y 0.000000, Z -0.093275)
 R-squared (a.u.): 3697.769381 (XX 2748.478398, YY 477.445511, ZZ 471.845471)
 Gauge origin (a.u.): (0.000000, 0.000000, 0.000000)
 Angular momentum (a.u.) against gauge origin: 
 (X 0.000000i, Y 0.000000i, Z 0.000000i)
 Traces of the OPDMs: Tr(AA) 60.000000, Tr(BB) 61.000000
 <S^2> = 0.750000

 Excited state properties for  EOMIP-CCSD transition 4/B2
 Dipole moment (a.u.): 0.403485 (X 0.000000, Y 0.000000, Z 0.403485)
 R-squared (a.u.): 3700.767990 (XX 2752.787708, YY 475.452543, ZZ 472.527739)
 Gauge origin (a.u.): (0.000000, 0.000000, 0.000000)
 Angular momentum (a.u.) against gauge origin: 
 (X 0.000000i, Y 0.000000i, Z 0.000000i)
 Traces of the OPDMs: Tr(AA) 60.000000, Tr(BB) 61.000000
 <S^2> = 0.750000


 EOMIP-CCSD  CPU 3121.77 s  wall 332.85 s

 Start computing the transition properties

 ------------------------------------------------------------------------------
 The new SOC module will be executed 
 Authors: Pavel Pokhilko and Evgeny Epifanovsky 
 SOC 1e and mf integrals are evaluating by libqints...
 ------------------------------------------------------------------------------
 State A: eomip_ccsd/a: 1/A1
 State B: eomip_ccsd/a: 2/A1
 Energy GAP = 0.056800 a.u. = 1.545614 eV
 Transition dipole moment (a.u.):
   A->B: 0.054580 (X 0.000000, Y 0.000000, Z 0.054580)
   B->A: 0.054056 (X 0.000000, Y 0.000000, Z 0.054056)
 Oscillator strength (a.u.): 0.000112
 Transition angular momentum against gauge origin (a.u.):
   A->B:  (X 0.000000i, Y 0.000000i, Z 0.000000i)
   B->A:  (X 0.000000i, Y 0.000000i, Z 0.000000i)
 Norm of one-particle transition density matrix:
   A->B: 0.934536;   B->A: 0.929791
   ||gamma^AB||*||gamma^BA||: 0.868923

 ______________________________________________________________
 A(Ket)->B(Bra) transition SO matrices
 Analysing Sz ans S^2 of the pair of states...
 Ket state:  Computed S^2 = 0.750000 will be treated as 0.750000 Sz = -0.500000
 Bra state:  Computed S^2 = 0.750000 will be treated as 0.750000 Sz = -0.500000
 Clebsh-Gordan coefficient: <0.500,-0.500;1.000,0.000|0.500,-0.500> = -0.577
 _________________________________________________
 One-electron SO (cm-1)
 Reduced matrix elements:
 <S|| Hso(L-) ||S'> = (0.000000,-0.000000)
 <S|| Hso(L0) ||S'> = (0.000000,0.000000)
 <S|| Hso(L+) ||S'> = (0.000000,0.000000)
 SOCC = 0.000000
 Actual matrix elements:
       |Sz=-0.50>           |Sz=0.50>
 <Sz=-0.50|(0.000000,-0.000000)(0.000000,0.000000)
 <Sz=0.50|(-0.000000,0.000000)(0.000000,0.000000)
 _________________________________________________
 Mean-field SO (cm-1)
 Reduced matrix elements:
 <S|| Hso(L-) ||S'> = (0.000000,-0.000000)
 <S|| Hso(L0) ||S'> = (0.000000,0.000000)
 <S|| Hso(L+) ||S'> = (0.000000,0.000000)
 SOCC = 0.000000
 Actual matrix elements:
       |Sz=-0.50>           |Sz=0.50>
 <Sz=-0.50|(0.000000,-0.000000)(0.000000,0.000000)
 <Sz=0.50|(-0.000000,0.000000)(0.000000,0.000000)
 Singlet part of <S|| Hso(L0) ||S'> = (-0.000000,-0.000000) (excluded from all matrix elements)
 L-/L+ Averaged reduced matrix elements:
 <S|| Hso(L-) ||S'> = (0.000000,-0.000000)
 <S|| Hso(L+) ||S'> = (0.000000,0.000000)
 ______________________________________________________________
 B(Ket)->A(Bra) transition SO matrices
 Analysing Sz ans S^2 of the pair of states...
 Ket state:  Computed S^2 = 0.750000 will be treated as 0.750000 Sz = -0.500000
 Bra state:  Computed S^2 = 0.750000 will be treated as 0.750000 Sz = -0.500000
 Clebsh-Gordan coefficient: <0.500,-0.500;1.000,0.000|0.500,-0.500> = -0.577
 _________________________________________________
 One-electron SO (cm-1)
 Reduced matrix elements:
 <S|| Hso(L-) ||S'> = (-0.000000,-0.000000)
 <S|| Hso(L0) ||S'> = (0.000000,-0.000000)
 <S|| Hso(L+) ||S'> = (-0.000000,0.000000)
 SOCC = 0.000000
 Actual matrix elements:
       |Sz=-0.50>           |Sz=0.50>
 <Sz=-0.50|(0.000000,0.000000)(-0.000000,0.000000)
 <Sz=0.50|(0.000000,0.000000)(0.000000,-0.000000)
 _________________________________________________
 Mean-field SO (cm-1)
 Reduced matrix elements:
 <S|| Hso(L-) ||S'> = (-0.000000,-0.000000)
 <S|| Hso(L0) ||S'> = (0.000000,-0.000000)
 <S|| Hso(L+) ||S'> = (-0.000000,0.000000)
 SOCC = 0.000000
 Actual matrix elements:
       |Sz=-0.50>           |Sz=0.50>
 <Sz=-0.50|(0.000000,0.000000)(-0.000000,0.000000)
 <Sz=0.50|(0.000000,0.000000)(0.000000,-0.000000)
 Singlet part of <S|| Hso(L0) ||S'> = (-0.000000,0.000000) (excluded from all matrix elements)
 L-/L+ Averaged reduced matrix elements:
 <S|| Hso(L-) ||S'> = (-0.000000,-0.000000)
 <S|| Hso(L+) ||S'> = (-0.000000,0.000000)
 ______________________________________________________________
   Arithmetically averaged transition SO matrices
   (The phases shown, Ket and Bra assingment are from A(Ket)->B(Bra))
 _________________________________________________
 One-electron SO (cm-1)
 SOCC = 0.000000
 Actual matrix elements:
       |Sz=-0.50>           |Sz=0.50>
 <Sz=-0.50|(0.000000,-0.000000)(0.000000,0.000000)
 <Sz=0.50|(-0.000000,0.000000)(0.000000,0.000000)
 _________________________________________________
 Mean-field SO (cm-1)
 SOCC = 0.000000
 Actual matrix elements:
       |Sz=-0.50>           |Sz=0.50>
 <Sz=-0.50|(0.000000,-0.000000)(0.000000,0.000000)
 <Sz=0.50|(-0.000000,0.000000)(0.000000,0.000000)
 ______________________________________________________________

 ------------------------------------------------------------------------------
 State A: eomip_ccsd/a: 1/A1
 State B: eomip_ccsd/a: 3/A1
 Energy GAP = 0.089859 a.u. = 2.445192 eV
 Transition dipole moment (a.u.):
   A->B: 0.142020 (X 0.000000, Y 0.000000, Z -0.142020)
   B->A: 0.144611 (X 0.000000, Y 0.000000, Z -0.144611)
 Oscillator strength (a.u.): 0.001230
 Transition angular momentum against gauge origin (a.u.):
   A->B:  (X 0.000000i, Y 0.000000i, Z 0.000000i)
   B->A:  (X 0.000000i, Y 0.000000i, Z 0.000000i)
 Norm of one-particle transition density matrix:
   A->B: 0.933944;   B->A: 0.928718
   ||gamma^AB||*||gamma^BA||: 0.867371

 ______________________________________________________________
 A(Ket)->B(Bra) transition SO matrices
 Analysing Sz ans S^2 of the pair of states...
 Ket state:  Computed S^2 = 0.750000 will be treated as 0.750000 Sz = -0.500000
 Bra state:  Computed S^2 = 0.750000 will be treated as 0.750000 Sz = -0.500000
 Clebsh-Gordan coefficient: <0.500,-0.500;1.000,0.000|0.500,-0.500> = -0.577
 _________________________________________________
 One-electron SO (cm-1)
 Reduced matrix elements:
 <S|| Hso(L-) ||S'> = (-0.000000,0.000000)
 <S|| Hso(L0) ||S'> = (0.000000,-0.000000)
 <S|| Hso(L+) ||S'> = (-0.000000,-0.000000)
 SOCC = 0.000000
 Actual matrix elements:
       |Sz=-0.50>           |Sz=0.50>
 <Sz=-0.50|(0.000000,0.000000)(-0.000000,-0.000000)
 <Sz=0.50|(0.000000,-0.000000)(0.000000,-0.000000)
 _________________________________________________
 Mean-field SO (cm-1)
 Reduced matrix elements:
 <S|| Hso(L-) ||S'> = (-0.000000,0.000000)
 <S|| Hso(L0) ||S'> = (0.000000,-0.000000)
 <S|| Hso(L+) ||S'> = (-0.000000,-0.000000)
 SOCC = 0.000000
 Actual matrix elements:
       |Sz=-0.50>           |Sz=0.50>
 <Sz=-0.50|(0.000000,0.000000)(-0.000000,-0.000000)
 <Sz=0.50|(0.000000,-0.000000)(0.000000,-0.000000)
 Singlet part of <S|| Hso(L0) ||S'> = (-0.000000,0.000000) (excluded from all matrix elements)
 L-/L+ Averaged reduced matrix elements:
 <S|| Hso(L-) ||S'> = (-0.000000,0.000000)
 <S|| Hso(L+) ||S'> = (-0.000000,-0.000000)
 ______________________________________________________________
 B(Ket)->A(Bra) transition SO matrices
 Analysing Sz ans S^2 of the pair of states...
 Ket state:  Computed S^2 = 0.750000 will be treated as 0.750000 Sz = -0.500000
 Bra state:  Computed S^2 = 0.750000 will be treated as 0.750000 Sz = -0.500000
 Clebsh-Gordan coefficient: <0.500,-0.500;1.000,0.000|0.500,-0.500> = -0.577
 _________________________________________________
 One-electron SO (cm-1)
 Reduced matrix elements:
 <S|| Hso(L-) ||S'> = (0.000000,0.000000)
 <S|| Hso(L0) ||S'> = (0.000000,0.000000)
 <S|| Hso(L+) ||S'> = (0.000000,-0.000000)
 SOCC = 0.000000
 Actual matrix elements:
       |Sz=-0.50>           |Sz=0.50>
 <Sz=-0.50|(0.000000,-0.000000)(0.000000,-0.000000)
 <Sz=0.50|(-0.000000,-0.000000)(0.000000,0.000000)
 _________________________________________________
 Mean-field SO (cm-1)
 Reduced matrix elements:
 <S|| Hso(L-) ||S'> = (0.000000,0.000000)
 <S|| Hso(L0) ||S'> = (0.000000,0.000000)
 <S|| Hso(L+) ||S'> = (0.000000,-0.000000)
 SOCC = 0.000000
 Actual matrix elements:
       |Sz=-0.50>           |Sz=0.50>
 <Sz=-0.50|(0.000000,-0.000000)(0.000000,-0.000000)
 <Sz=0.50|(-0.000000,-0.000000)(0.000000,0.000000)
 Singlet part of <S|| Hso(L0) ||S'> = (-0.000000,-0.000000) (excluded from all matrix elements)
 L-/L+ Averaged reduced matrix elements:
 <S|| Hso(L-) ||S'> = (0.000000,0.000000)
 <S|| Hso(L+) ||S'> = (0.000000,-0.000000)
 ______________________________________________________________
   Arithmetically averaged transition SO matrices
   (The phases shown, Ket and Bra assingment are from A(Ket)->B(Bra))
 _________________________________________________
 One-electron SO (cm-1)
 SOCC = 0.000000
 Actual matrix elements:
       |Sz=-0.50>           |Sz=0.50>
 <Sz=-0.50|(0.000000,0.000000)(-0.000000,-0.000000)
 <Sz=0.50|(0.000000,-0.000000)(0.000000,-0.000000)
 _________________________________________________
 Mean-field SO (cm-1)
 SOCC = 0.000000
 Actual matrix elements:
       |Sz=-0.50>           |Sz=0.50>
 <Sz=-0.50|(0.000000,0.000000)(-0.000000,-0.000000)
 <Sz=0.50|(0.000000,-0.000000)(0.000000,-0.000000)
 ______________________________________________________________

 ------------------------------------------------------------------------------
 State A: eomip_ccsd/a: 1/A1
 State B: eomip_ccsd/a: 4/A1
 Energy GAP = 0.118125 a.u. = 3.214335 eV
 Transition dipole moment (a.u.):
   A->B: 0.181318 (X 0.000000, Y 0.000000, Z 0.181318)
   B->A: 0.176413 (X 0.000000, Y 0.000000, Z 0.176413)
 Oscillator strength (a.u.): 0.002519
 Transition angular momentum against gauge origin (a.u.):
   A->B:  (X 0.000000i, Y 0.000000i, Z 0.000000i)
   B->A:  (X 0.000000i, Y 0.000000i, Z 0.000000i)
 Norm of one-particle transition density matrix:
   A->B: 0.935824;   B->A: 0.931640
   ||gamma^AB||*||gamma^BA||: 0.871852

 ______________________________________________________________
 A(Ket)->B(Bra) transition SO matrices
 Analysing Sz ans S^2 of the pair of states...
 Ket state:  Computed S^2 = 0.750000 will be treated as 0.750000 Sz = -0.500000
 Bra state:  Computed S^2 = 0.750000 will be treated as 0.750000 Sz = -0.500000
 Clebsh-Gordan coefficient: <0.500,-0.500;1.000,0.000|0.500,-0.500> = -0.577
 _________________________________________________
 One-electron SO (cm-1)
 Reduced matrix elements:
 <S|| Hso(L-) ||S'> = (-0.000000,-0.000000)
 <S|| Hso(L0) ||S'> = (0.000000,0.000000)
 <S|| Hso(L+) ||S'> = (-0.000000,0.000000)
 SOCC = 0.000000
 Actual matrix elements:
       |Sz=-0.50>           |Sz=0.50>
 <Sz=-0.50|(0.000000,-0.000000)(-0.000000,0.000000)
 <Sz=0.50|(0.000000,0.000000)(0.000000,0.000000)
 _________________________________________________
 Mean-field SO (cm-1)
 Reduced matrix elements:
 <S|| Hso(L-) ||S'> = (0.000000,-0.000000)
 <S|| Hso(L0) ||S'> = (0.000000,0.000000)
 <S|| Hso(L+) ||S'> = (0.000000,0.000000)
 SOCC = 0.000000
 Actual matrix elements:
       |Sz=-0.50>           |Sz=0.50>
 <Sz=-0.50|(0.000000,-0.000000)(0.000000,0.000000)
 <Sz=0.50|(-0.000000,0.000000)(0.000000,0.000000)
 Singlet part of <S|| Hso(L0) ||S'> = (-0.000000,-0.000000) (excluded from all matrix elements)
 L-/L+ Averaged reduced matrix elements:
 <S|| Hso(L-) ||S'> = (0.000000,-0.000000)
 <S|| Hso(L+) ||S'> = (0.000000,0.000000)
 ______________________________________________________________
 B(Ket)->A(Bra) transition SO matrices
 Analysing Sz ans S^2 of the pair of states...
 Ket state:  Computed S^2 = 0.750000 will be treated as 0.750000 Sz = -0.500000
 Bra state:  Computed S^2 = 0.750000 will be treated as 0.750000 Sz = -0.500000
 Clebsh-Gordan coefficient: <0.500,-0.500;1.000,0.000|0.500,-0.500> = -0.577
 _________________________________________________
 One-electron SO (cm-1)
 Reduced matrix elements:
 <S|| Hso(L-) ||S'> = (-0.000000,0.000000)
 <S|| Hso(L0) ||S'> = (0.000000,-0.000000)
 <S|| Hso(L+) ||S'> = (-0.000000,-0.000000)
 SOCC = 0.000000
 Actual matrix elements:
       |Sz=-0.50>           |Sz=0.50>
 <Sz=-0.50|(0.000000,0.000000)(-0.000000,-0.000000)
 <Sz=0.50|(0.000000,-0.000000)(0.000000,-0.000000)
 _________________________________________________
 Mean-field SO (cm-1)
 Reduced matrix elements:
 <S|| Hso(L-) ||S'> = (-0.000000,0.000000)
 <S|| Hso(L0) ||S'> = (0.000000,-0.000000)
 <S|| Hso(L+) ||S'> = (-0.000000,-0.000000)
 SOCC = 0.000000
 Actual matrix elements:
       |Sz=-0.50>           |Sz=0.50>
 <Sz=-0.50|(0.000000,0.000000)(-0.000000,-0.000000)
 <Sz=0.50|(0.000000,-0.000000)(0.000000,-0.000000)
 Singlet part of <S|| Hso(L0) ||S'> = (-0.000000,-0.000000) (excluded from all matrix elements)
 L-/L+ Averaged reduced matrix elements:
 <S|| Hso(L-) ||S'> = (-0.000000,0.000000)
 <S|| Hso(L+) ||S'> = (-0.000000,-0.000000)
 ______________________________________________________________
   Arithmetically averaged transition SO matrices
   (The phases shown, Ket and Bra assingment are from A(Ket)->B(Bra))
 _________________________________________________
 One-electron SO (cm-1)
 SOCC = 0.000000
 Actual matrix elements:
       |Sz=-0.50>           |Sz=0.50>
 <Sz=-0.50|(0.000000,-0.000000)(0.000000,0.000000)
 <Sz=0.50|(-0.000000,0.000000)(0.000000,0.000000)
 _________________________________________________
 Mean-field SO (cm-1)
 SOCC = 0.000000
 Actual matrix elements:
       |Sz=-0.50>           |Sz=0.50>
 <Sz=-0.50|(0.000000,-0.000000)(0.000000,0.000000)
 <Sz=0.50|(-0.000000,0.000000)(0.000000,0.000000)
 ______________________________________________________________

 ------------------------------------------------------------------------------
 State A: eomip_ccsd/a: 1/A1
 State B: eomip_ccsd/a: 1/A2
 Energy GAP = 0.025250 a.u. = 0.687100 eV
 Transition dipole moment (a.u.):
   A->B: 0.000000 (X 0.000000, Y 0.000000, Z 0.000000)
   B->A: 0.000000 (X 0.000000, Y 0.000000, Z 0.000000)
 Oscillator strength (a.u.): 0.000000
 Transition angular momentum against gauge origin (a.u.):
   A->B:  (X 0.000000i, Y 0.000000i, Z -0.983511i)
   B->A:  (X 0.000000i, Y 0.000000i, Z 1.004877i)
 Norm of one-particle transition density matrix:
   A->B: 0.937675;   B->A: 0.932609
   ||gamma^AB||*||gamma^BA||: 0.874484

 ______________________________________________________________
 A(Ket)->B(Bra) transition SO matrices
 Analysing Sz ans S^2 of the pair of states...
 Ket state:  Computed S^2 = 0.750000 will be treated as 0.750000 Sz = -0.500000
 Bra state:  Computed S^2 = 0.750000 will be treated as 0.750000 Sz = -0.500000
 Clebsh-Gordan coefficient: <0.500,-0.500;1.000,0.000|0.500,-0.500> = -0.577
 _________________________________________________
 One-electron SO (cm-1)
 Reduced matrix elements:
 <S|| Hso(L-) ||S'> = (0.000000,-0.000000)
 <S|| Hso(L0) ||S'> = (0.000000,10.306802)
 <S|| Hso(L+) ||S'> = (0.000000,0.000000)
 SOCC = 8.415469
 Actual matrix elements:
       |Sz=-0.50>           |Sz=0.50>
 <Sz=-0.50|(0.000000,-5.950635)(0.000000,0.000000)
 <Sz=0.50|(-0.000000,0.000000)(0.000000,5.950635)
 _________________________________________________
 Mean-field SO (cm-1)
 Reduced matrix elements:
 <S|| Hso(L-) ||S'> = (0.000000,-0.000000)
 <S|| Hso(L0) ||S'> = (0.000000,4.177557)
 <S|| Hso(L+) ||S'> = (0.000000,0.000000)
 SOCC = 3.410961
 Actual matrix elements:
       |Sz=-0.50>           |Sz=0.50>
 <Sz=-0.50|(0.000000,-2.411913)(0.000000,0.000000)
 <Sz=0.50|(-0.000000,0.000000)(0.000000,2.411913)
 Singlet part of <S|| Hso(L0) ||S'> = (-0.000000,0.000000) (excluded from all matrix elements)
 L-/L+ Averaged reduced matrix elements:
 <S|| Hso(L-) ||S'> = (0.000000,-0.000000)
 <S|| Hso(L+) ||S'> = (0.000000,0.000000)
 ______________________________________________________________
 B(Ket)->A(Bra) transition SO matrices
 Analysing Sz ans S^2 of the pair of states...
 Ket state:  Computed S^2 = 0.750000 will be treated as 0.750000 Sz = -0.500000
 Bra state:  Computed S^2 = 0.750000 will be treated as 0.750000 Sz = -0.500000
 Clebsh-Gordan coefficient: <0.500,-0.500;1.000,0.000|0.500,-0.500> = -0.577
 _________________________________________________
 One-electron SO (cm-1)
 Reduced matrix elements:
 <S|| Hso(L-) ||S'> = (-0.000000,-0.000000)
 <S|| Hso(L0) ||S'> = (0.000000,-10.281697)
 <S|| Hso(L+) ||S'> = (-0.000000,0.000000)
 SOCC = 8.394971
 Actual matrix elements:
       |Sz=-0.50>           |Sz=0.50>
 <Sz=-0.50|(0.000000,5.936141)(-0.000000,0.000000)
 <Sz=0.50|(0.000000,0.000000)(0.000000,-5.936141)
 _________________________________________________
 Mean-field SO (cm-1)
 Reduced matrix elements:
 <S|| Hso(L-) ||S'> = (-0.000000,0.000000)
 <S|| Hso(L0) ||S'> = (0.000000,-4.125219)
 <S|| Hso(L+) ||S'> = (-0.000000,-0.000000)
 SOCC = 3.368227
 Actual matrix elements:
       |Sz=-0.50>           |Sz=0.50>
 <Sz=-0.50|(0.000000,2.381696)(-0.000000,-0.000000)
 <Sz=0.50|(0.000000,-0.000000)(0.000000,-2.381696)
 Singlet part of <S|| Hso(L0) ||S'> = (-0.000000,-0.000000) (excluded from all matrix elements)
 L-/L+ Averaged reduced matrix elements:
 <S|| Hso(L-) ||S'> = (-0.000000,0.000000)
 <S|| Hso(L+) ||S'> = (-0.000000,-0.000000)
 ______________________________________________________________
   Arithmetically averaged transition SO matrices
   (The phases shown, Ket and Bra assingment are from A(Ket)->B(Bra))
 _________________________________________________
 One-electron SO (cm-1)
 SOCC = 8.405220
 Actual matrix elements:
       |Sz=-0.50>           |Sz=0.50>
 <Sz=-0.50|(0.000000,-5.943388)(0.000000,0.000000)
 <Sz=0.50|(-0.000000,0.000000)(0.000000,5.943388)
 _________________________________________________
 Mean-field SO (cm-1)
 SOCC = 3.389594
 Actual matrix elements:
       |Sz=-0.50>           |Sz=0.50>
 <Sz=-0.50|(0.000000,-2.396805)(0.000000,0.000000)
 <Sz=0.50|(-0.000000,0.000000)(0.000000,2.396805)
 ______________________________________________________________

 ------------------------------------------------------------------------------
 State A: eomip_ccsd/a: 1/A1
 State B: eomip_ccsd/a: 2/A2
 Energy GAP = 0.074014 a.u. = 2.014016 eV
 Transition dipole moment (a.u.):
   A->B: 0.000000 (X 0.000000, Y 0.000000, Z 0.000000)
   B->A: 0.000000 (X 0.000000, Y 0.000000, Z 0.000000)
 Oscillator strength (a.u.): 0.000000
 Transition angular momentum against gauge origin (a.u.):
   A->B:  (X 0.000000i, Y 0.000000i, Z 0.382970i)
   B->A:  (X 0.000000i, Y 0.000000i, Z -0.309333i)
 Norm of one-particle transition density matrix:
   A->B: 0.935390;   B->A: 0.931202
   ||gamma^AB||*||gamma^BA||: 0.871037

 ______________________________________________________________
 A(Ket)->B(Bra) transition SO matrices
 Analysing Sz ans S^2 of the pair of states...
 Ket state:  Computed S^2 = 0.750000 will be treated as 0.750000 Sz = -0.500000
 Bra state:  Computed S^2 = 0.750000 will be treated as 0.750000 Sz = -0.500000
 Clebsh-Gordan coefficient: <0.500,-0.500;1.000,0.000|0.500,-0.500> = -0.577
 _________________________________________________
 One-electron SO (cm-1)
 Reduced matrix elements:
 <S|| Hso(L-) ||S'> = (0.000000,0.000000)
 <S|| Hso(L0) ||S'> = (0.000000,-1.684162)
 <S|| Hso(L+) ||S'> = (0.000000,-0.000000)
 SOCC = 1.375113
 Actual matrix elements:
       |Sz=-0.50>           |Sz=0.50>
 <Sz=-0.50|(0.000000,0.972351)(0.000000,-0.000000)
 <Sz=0.50|(-0.000000,-0.000000)(0.000000,-0.972351)
 _________________________________________________
 Mean-field SO (cm-1)
 Reduced matrix elements:
 <S|| Hso(L-) ||S'> = (0.000000,0.000000)
 <S|| Hso(L0) ||S'> = (0.000000,-0.548108)
 <S|| Hso(L+) ||S'> = (0.000000,-0.000000)
 SOCC = 0.447528
 Actual matrix elements:
       |Sz=-0.50>           |Sz=0.50>
 <Sz=-0.50|(0.000000,0.316450)(0.000000,-0.000000)
 <Sz=0.50|(-0.000000,-0.000000)(0.000000,-0.316450)
 Singlet part of <S|| Hso(L0) ||S'> = (-0.000000,-0.000000) (excluded from all matrix elements)
 L-/L+ Averaged reduced matrix elements:
 <S|| Hso(L-) ||S'> = (0.000000,0.000000)
 <S|| Hso(L+) ||S'> = (0.000000,-0.000000)
 ______________________________________________________________
 B(Ket)->A(Bra) transition SO matrices
[...]
   A->B:  (X 0.000000i, Y 0.000000i, Z 0.000000i)
   B->A:  (X 0.000000i, Y 0.000000i, Z 0.000000i)
 Norm of one-particle transition density matrix:
   A->B: 0.931302;   B->A: 0.932225
   ||gamma^AB||*||gamma^BA||: 0.868183

 ______________________________________________________________
 A(Ket)->B(Bra) transition SO matrices
 Analysing Sz ans S^2 of the pair of states...
 Ket state:  Computed S^2 = 0.750000 will be treated as 0.750000 Sz = -0.500000
 Bra state:  Computed S^2 = 0.750000 will be treated as 0.750000 Sz = -0.500000
 Clebsh-Gordan coefficient: <0.500,-0.500;1.000,0.000|0.500,-0.500> = -0.577
 _________________________________________________
 One-electron SO (cm-1)
 Reduced matrix elements:
 <S|| Hso(L-) ||S'> = (0.000000,-0.000000)
 <S|| Hso(L0) ||S'> = (0.000000,-0.000000)
 <S|| Hso(L+) ||S'> = (0.000000,0.000000)
 SOCC = 0.000000
 Actual matrix elements:
       |Sz=-0.50>           |Sz=0.50>
 <Sz=-0.50|(0.000000,0.000000)(0.000000,0.000000)
 <Sz=0.50|(-0.000000,0.000000)(0.000000,-0.000000)
 _________________________________________________
 Mean-field SO (cm-1)
 Reduced matrix elements:
 <S|| Hso(L-) ||S'> = (0.000000,-0.000000)
 <S|| Hso(L0) ||S'> = (0.000000,-0.000000)
 <S|| Hso(L+) ||S'> = (0.000000,0.000000)
 SOCC = 0.000000
 Actual matrix elements:
       |Sz=-0.50>           |Sz=0.50>
 <Sz=-0.50|(0.000000,0.000000)(0.000000,0.000000)
 <Sz=0.50|(-0.000000,0.000000)(0.000000,-0.000000)
 Singlet part of <S|| Hso(L0) ||S'> = (-0.000000,0.000000) (excluded from all matrix elements)
 L-/L+ Averaged reduced matrix elements:
 <S|| Hso(L-) ||S'> = (0.000000,-0.000000)
 <S|| Hso(L+) ||S'> = (0.000000,0.000000)
 ______________________________________________________________
 B(Ket)->A(Bra) transition SO matrices
 Analysing Sz ans S^2 of the pair of states...
 Ket state:  Computed S^2 = 0.750000 will be treated as 0.750000 Sz = -0.500000
 Bra state:  Computed S^2 = 0.750000 will be treated as 0.750000 Sz = -0.500000
 Clebsh-Gordan coefficient: <0.500,-0.500;1.000,0.000|0.500,-0.500> = -0.577
 _________________________________________________
 One-electron SO (cm-1)
 Reduced matrix elements:
 <S|| Hso(L-) ||S'> = (0.000000,-0.000000)
 <S|| Hso(L0) ||S'> = (0.000000,0.000000)
 <S|| Hso(L+) ||S'> = (0.000000,0.000000)
 SOCC = 0.000000
 Actual matrix elements:
       |Sz=-0.50>           |Sz=0.50>
 <Sz=-0.50|(0.000000,-0.000000)(0.000000,0.000000)
 <Sz=0.50|(-0.000000,0.000000)(0.000000,0.000000)
 _________________________________________________
 Mean-field SO (cm-1)
 Reduced matrix elements:
 <S|| Hso(L-) ||S'> = (-0.000000,-0.000000)
 <S|| Hso(L0) ||S'> = (0.000000,0.000000)
 <S|| Hso(L+) ||S'> = (-0.000000,0.000000)
 SOCC = 0.000000
 Actual matrix elements:
       |Sz=-0.50>           |Sz=0.50>
 <Sz=-0.50|(0.000000,-0.000000)(-0.000000,0.000000)
 <Sz=0.50|(0.000000,0.000000)(0.000000,0.000000)
 Singlet part of <S|| Hso(L0) ||S'> = (-0.000000,-0.000000) (excluded from all matrix elements)
 L-/L+ Averaged reduced matrix elements:
 <S|| Hso(L-) ||S'> = (-0.000000,-0.000000)
 <S|| Hso(L+) ||S'> = (-0.000000,0.000000)
 ______________________________________________________________
   Arithmetically averaged transition SO matrices
   (The phases shown, Ket and Bra assingment are from A(Ket)->B(Bra))
 _________________________________________________
 One-electron SO (cm-1)
 SOCC = 0.000000
 Actual matrix elements:
       |Sz=-0.50>           |Sz=0.50>
 <Sz=-0.50|(0.000000,0.000000)(0.000000,0.000000)
 <Sz=0.50|(-0.000000,0.000000)(0.000000,-0.000000)
 _________________________________________________
 Mean-field SO (cm-1)
 SOCC = 0.000000
 Actual matrix elements:
       |Sz=-0.50>           |Sz=0.50>
 <Sz=-0.50|(0.000000,0.000000)(0.000000,0.000000)
 <Sz=0.50|(-0.000000,0.000000)(0.000000,-0.000000)
 ______________________________________________________________


 All requested transition properties have been computed


 Transition Properties  CPU 63443.42 s  wall 5440.48 s
 Total ccman2 time:   CPU 81365.86 s  wall 7106.50 s


 --------------------------------------------------------------
             Orbital Energies (a.u.) and Symmetries
 --------------------------------------------------------------

 Alpha MOs, Restricted
 -- Occupied --                  
-11.232 -11.232 -11.232 -11.232 -11.228 -11.228 -11.227 -11.227
  1 B1    1 A1    1 B2    1 A2    2 A1    2 B1    3 B1    3 A1                 
-11.227 -11.227 -11.226 -11.226 -11.225 -11.225 -11.222 -11.222
  2 B2    2 A2    3 B2    3 A2    4 A1    4 B2    4 B1    5 A1                 
-11.214  -1.192  -1.166  -1.111  -1.003  -0.971  -0.966  -0.948
  6 A1    7 A1    5 B1    8 A1    5 B2    6 B1    4 A2    9 A1                 
 -0.942  -0.934  -0.913  -0.784  -0.759  -0.754  -0.744  -0.718
 10 A1    7 B1    6 B2   11 A1    5 A2    8 B1   12 A1    7 B2                 
 -0.707  -0.694  -0.689  -0.685  -0.651  -0.639  -0.634  -0.576
  8 B2    6 A2   13 A1    9 B1   14 A1   10 B1   15 A1   11 B1                 
 -0.551  -0.531  -0.527  -0.520  -0.517  -0.511  -0.497  -0.487
 12 B1   16 A1    9 B2    7 A2   13 B1   17 A1   10 B2   18 A1                 
 -0.485  -0.478  -0.466  -0.461  -0.450  -0.445  -0.437  -0.426
  8 A2   11 B2   14 B1   19 A1   12 B2   15 B1    9 A2   13 B2                 
 -0.421  -0.419  -0.390  -0.326  -0.310
 16 B1   20 A1   10 A2   21 A1   17 B1                                         
 -- Virtual --                   
  0.165   0.171   0.178   0.198   0.210   0.212   0.222   0.233
 14 B2   11 A2   22 A1   18 B1   23 A1   15 B2   24 A1   12 A2                 
  0.233   0.238   0.239   0.242   0.244   0.255   0.261   0.264
 19 B1   16 B2   25 A1   20 B1   26 A1   13 A2   17 B2   21 B1                 
  0.278   0.290   0.302   0.321   0.332   0.335   0.338   0.341
 27 A1   18 B2   22 B1   19 B2   28 A1   14 A2   29 A1   23 B1                 
  0.349   0.366   0.377   0.378   0.391   0.394   0.416   0.417
 30 A1   15 A2   24 B1   20 B2   31 A1   16 A2   25 B1   32 A1                 
  0.417   0.418   0.423   0.457   0.469   0.474   0.478   0.481
 17 A2   21 B2   26 B1   33 A1   22 B2   23 B2   18 A2   27 B1                 
  0.494   0.526   0.562   0.577   0.591   0.600   0.620   0.626
 24 B2   19 A2   20 A2   25 B2   34 A1   28 B1   35 A1   29 B1                 
  0.636   0.648   0.662   0.675   0.710   0.718   0.724   0.733
 36 A1   30 B1   31 B1   37 A1   38 A1   26 B2   39 A1   21 A2                 
  0.748   0.753   0.759   0.760   0.769   0.785   0.814   0.814
 32 B1   27 B2   33 B1   22 A2   40 A1   28 B2   34 B1   41 A1                 
  0.815   0.816   0.830   0.832   0.833   0.834   0.838   0.845
 29 B2   23 A2   30 B2   42 A1   24 A2   35 B1   31 B2   25 A2                 
  0.850   0.855   0.862   0.867   0.871   0.877   0.880   0.891
 43 A1   44 A1   36 B1   45 A1   32 B2   37 B1   33 B2   38 B1                 
  0.895   0.898   0.904   0.908   0.912   0.917   0.920   0.920
 26 A2   46 A1   34 B2   47 A1   27 A2   39 B1   35 B2   40 B1                 
  0.931   0.933   0.948   0.961   0.968   0.979   0.980   0.994
 28 A2   48 A1   36 B2   41 B1   49 A1   29 A2   37 B2   30 A2                 
  0.998   1.006   1.022   1.024   1.055   1.058   1.066   1.068
 42 B1   38 B2   50 A1   51 A1   39 B2   43 B1   31 A2   52 A1                 
  1.082   1.096   1.125   1.142   1.152   1.156   1.163   1.177
 53 A1   44 B1   54 A1   45 B1   32 A2   40 B2   55 A1   33 A2                 
  1.200   1.216   1.225   1.239   1.259   1.291   1.303   1.341
 41 B2   56 A1   46 B1   34 A2   47 B1   42 B2   57 A1   48 B1                 
  1.353   1.358   1.359   1.394   1.394   1.413   1.419   1.437
 35 A2   58 A1   43 B2   36 A2   59 A1   49 B1   44 B2   50 B1                 
  1.478   1.483   1.502   1.508   1.553   1.589   1.600   1.601
 60 A1   37 A2   51 B1   61 A1   45 B2   38 A2   52 B1   62 A1                 
  1.610   1.615   1.639   1.645   1.675   1.678   1.688   1.706
 46 B2   53 B1   39 A2   63 A1   54 B1   47 B2   40 A2   64 A1                 
  1.717   1.737   1.759   1.760   1.772   1.781   1.784   1.785
 55 B1   65 A1   56 B1   66 A1   67 A1   68 A1   57 B1   41 A2                 
  1.794   1.795   1.817   1.817   1.827   1.832   1.844   1.845
 48 B2   58 B1   49 B2   42 A2   50 B2   69 A1   51 B2   59 B1                 
  1.861   1.872   1.876   1.888   1.891   1.901   1.906   1.923
 43 A2   60 B1   70 A1   52 B2   44 A2   61 B1   45 A2   71 A1                 
  1.929   1.937   1.939   1.954   1.963   1.973   1.984   1.986
 53 B2   62 B1   54 B2   72 A1   63 B1   55 B2   73 A1   46 A2                 
  1.998   2.013   2.018   2.039   2.040   2.048   2.049   2.054
 74 A1   47 A2   64 B1   75 A1   56 B2   48 A2   57 B2   65 B1                 
  2.054   2.065   2.066   2.083   2.086   2.098   2.101   2.122
 76 A1   58 B2   49 A2   77 A1   66 B1   78 A1   67 B1   50 A2                 
  2.123   2.151   2.153   2.162   2.173   2.174   2.181   2.189
 68 B1   69 B1   59 B2   79 A1   51 A2   60 B2   61 B2   80 A1                 
  2.190   2.190   2.200   2.222   2.226   2.236   2.242   2.259
 62 B2   52 A2   81 A1   70 B1   82 A1   63 B2   71 B1   53 A2                 
  2.267   2.286   2.292   2.293   2.297   2.322   2.333   2.338
 72 B1   54 A2   83 A1   64 B2   55 A2   84 A1   56 A2   65 B2                 
  2.365   2.365   2.383   2.398   2.404   2.407   2.430   2.432
 73 B1   66 B2   74 B1   67 B2   85 A1   57 A2   86 A1   68 B2                 
  2.441   2.450   2.463   2.465   2.475   2.475   2.483   2.509
 75 B1   58 A2   87 A1   76 B1   59 A2   77 B1   69 B2   78 B1                 
  2.510   2.519   2.541   2.578   2.583   2.591   2.608   2.616
 60 A2   88 A1   70 B2   89 A1   90 A1   61 A2   79 B1   91 A1                 
  2.620   2.624   2.644   2.652   2.656   2.665   2.686   2.688
 71 B2   72 B2   80 B1   92 A1   62 A2   63 A2   73 B2   81 B1                 
  2.690   2.732   2.734   2.767   2.797   2.814   2.827   2.840
 93 A1   64 A2   74 B2   75 B2   65 A2   94 A1   82 B1   76 B2                 
  2.850   2.875   2.887   2.908   2.914   2.934   2.936   2.983
 83 B1   95 A1   66 A2   84 B1   96 A1   77 B2   67 A2   97 A1                 
  3.032   3.038   3.057   3.070   3.109   3.110   3.126   3.153
 78 B2   98 A1   68 A2   85 B1   69 A2   99 A1   86 B1  100 A1                 
  3.154   3.165   3.190   3.526   3.528
 79 B2   87 B1   80 B2   70 A2   81 B2                                         

 Beta MOs, Restricted
 -- Occupied --                  
-11.232 -11.232 -11.232 -11.232 -11.228 -11.228 -11.227 -11.227
  1 B1    1 A1    1 B2    1 A2    2 A1    2 B1    3 B1    3 A1                 
-11.227 -11.227 -11.226 -11.226 -11.225 -11.225 -11.222 -11.222
  2 B2    2 A2    3 B2    3 A2    4 A1    4 B2    4 B1    5 A1                 
-11.214  -1.192  -1.166  -1.111  -1.003  -0.971  -0.966  -0.948
  6 A1    7 A1    5 B1    8 A1    5 B2    6 B1    4 A2    9 A1                 
 -0.942  -0.934  -0.913  -0.784  -0.759  -0.754  -0.744  -0.718
 10 A1    7 B1    6 B2   11 A1    5 A2    8 B1   12 A1    7 B2                 
 -0.707  -0.694  -0.689  -0.685  -0.651  -0.639  -0.634  -0.576
  8 B2    6 A2   13 A1    9 B1   14 A1   10 B1   15 A1   11 B1                 
 -0.551  -0.531  -0.527  -0.520  -0.517  -0.511  -0.497  -0.487
 12 B1   16 A1    9 B2    7 A2   13 B1   17 A1   10 B2   18 A1                 
 -0.485  -0.478  -0.466  -0.461  -0.450  -0.445  -0.437  -0.426
  8 A2   11 B2   14 B1   19 A1   12 B2   15 B1    9 A2   13 B2                 
 -0.421  -0.419  -0.390  -0.326  -0.310
 16 B1   20 A1   10 A2   21 A1   17 B1                                         
 -- Virtual --                   
  0.165   0.171   0.178   0.198   0.210   0.212   0.222   0.233
 14 B2   11 A2   22 A1   18 B1   23 A1   15 B2   24 A1   12 A2                 
  0.233   0.238   0.239   0.242   0.244   0.255   0.261   0.264
 19 B1   16 B2   25 A1   20 B1   26 A1   13 A2   17 B2   21 B1                 
  0.278   0.290   0.302   0.321   0.332   0.335   0.338   0.341
 27 A1   18 B2   22 B1   19 B2   28 A1   14 A2   29 A1   23 B1                 
  0.349   0.366   0.377   0.378   0.391   0.394   0.416   0.417
 30 A1   15 A2   24 B1   20 B2   31 A1   16 A2   25 B1   32 A1                 
  0.417   0.418   0.423   0.457   0.469   0.474   0.478   0.481
 17 A2   21 B2   26 B1   33 A1   22 B2   23 B2   18 A2   27 B1                 
  0.494   0.526   0.562   0.577   0.591   0.600   0.620   0.626
 24 B2   19 A2   20 A2   25 B2   34 A1   28 B1   35 A1   29 B1                 
  0.636   0.648   0.662   0.675   0.710   0.718   0.724   0.733
 36 A1   30 B1   31 B1   37 A1   38 A1   26 B2   39 A1   21 A2                 
  0.748   0.753   0.759   0.760   0.769   0.785   0.814   0.814
 32 B1   27 B2   33 B1   22 A2   40 A1   28 B2   34 B1   41 A1                 
  0.815   0.816   0.830   0.832   0.833   0.834   0.838   0.845
 29 B2   23 A2   30 B2   42 A1   24 A2   35 B1   31 B2   25 A2                 
  0.850   0.855   0.862   0.867   0.871   0.877   0.880   0.891
 43 A1   44 A1   36 B1   45 A1   32 B2   37 B1   33 B2   38 B1                 
  0.895   0.898   0.904   0.908   0.912   0.917   0.920   0.920
 26 A2   46 A1   34 B2   47 A1   27 A2   39 B1   35 B2   40 B1                 
  0.931   0.933   0.948   0.961   0.968   0.979   0.980   0.994
 28 A2   48 A1   36 B2   41 B1   49 A1   29 A2   37 B2   30 A2                 
  0.998   1.006   1.022   1.024   1.055   1.058   1.066   1.068
 42 B1   38 B2   50 A1   51 A1   39 B2   43 B1   31 A2   52 A1                 
  1.082   1.096   1.125   1.142   1.152   1.156   1.163   1.177
 53 A1   44 B1   54 A1   45 B1   32 A2   40 B2   55 A1   33 A2                 
  1.200   1.216   1.225   1.239   1.259   1.291   1.303   1.341
 41 B2   56 A1   46 B1   34 A2   47 B1   42 B2   57 A1   48 B1                 
  1.353   1.358   1.359   1.394   1.394   1.413   1.419   1.437
 35 A2   58 A1   43 B2   36 A2   59 A1   49 B1   44 B2   50 B1                 
  1.478   1.483   1.502   1.508   1.553   1.589   1.600   1.601
 60 A1   37 A2   51 B1   61 A1   45 B2   38 A2   52 B1   62 A1                 
  1.610   1.615   1.639   1.645   1.675   1.678   1.688   1.706
 46 B2   53 B1   39 A2   63 A1   54 B1   47 B2   40 A2   64 A1                 
  1.717   1.737   1.759   1.760   1.772   1.781   1.784   1.785
 55 B1   65 A1   56 B1   66 A1   67 A1   68 A1   57 B1   41 A2                 
  1.794   1.795   1.817   1.817   1.827   1.832   1.844   1.845
 48 B2   58 B1   49 B2   42 A2   50 B2   69 A1   51 B2   59 B1                 
  1.861   1.872   1.876   1.888   1.891   1.901   1.906   1.923
 43 A2   60 B1   70 A1   52 B2   44 A2   61 B1   45 A2   71 A1                 
  1.929   1.937   1.939   1.954   1.963   1.973   1.984   1.986
 53 B2   62 B1   54 B2   72 A1   63 B1   55 B2   73 A1   46 A2                 
  1.998   2.013   2.018   2.039   2.040   2.048   2.049   2.054
 74 A1   47 A2   64 B1   75 A1   56 B2   48 A2   57 B2   65 B1                 
  2.054   2.065   2.066   2.083   2.086   2.098   2.101   2.122
 76 A1   58 B2   49 A2   77 A1   66 B1   78 A1   67 B1   50 A2                 
  2.123   2.151   2.153   2.162   2.173   2.174   2.181   2.189
 68 B1   69 B1   59 B2   79 A1   51 A2   60 B2   61 B2   80 A1                 
  2.190   2.190   2.200   2.222   2.226   2.236   2.242   2.259
 62 B2   52 A2   81 A1   70 B1   82 A1   63 B2   71 B1   53 A2                 
  2.267   2.286   2.292   2.293   2.297   2.322   2.333   2.338
 72 B1   54 A2   83 A1   64 B2   55 A2   84 A1   56 A2   65 B2                 
  2.365   2.365   2.383   2.398   2.404   2.407   2.430   2.432
 73 B1   66 B2   74 B1   67 B2   85 A1   57 A2   86 A1   68 B2                 
  2.441   2.450   2.463   2.465   2.475   2.475   2.483   2.509
 75 B1   58 A2   87 A1   76 B1   59 A2   77 B1   69 B2   78 B1                 
  2.510   2.519   2.541   2.578   2.583   2.591   2.608   2.616
 60 A2   88 A1   70 B2   89 A1   90 A1   61 A2   79 B1   91 A1                 
  2.620   2.624   2.644   2.652   2.656   2.665   2.686   2.688
 71 B2   72 B2   80 B1   92 A1   62 A2   63 A2   73 B2   81 B1                 
  2.690   2.732   2.734   2.767   2.797   2.814   2.827   2.840
 93 A1   64 A2   74 B2   75 B2   65 A2   94 A1   82 B1   76 B2                 
  2.850   2.875   2.887   2.908   2.914   2.934   2.936   2.983
 83 B1   95 A1   66 A2   84 B1   96 A1   77 B2   67 A2   97 A1                 
  3.032   3.038   3.057   3.070   3.109   3.110   3.126   3.153
 78 B2   98 A1   68 A2   85 B1   69 A2   99 A1   86 B1  100 A1                 
  3.154   3.165   3.190   3.526   3.528
 79 B2   87 B1   80 B2   70 A2   81 B2                                         
 --------------------------------------------------------------

          Ground-State Mulliken Net Atomic Charges

     Atom                 Charge (a.u.)
  ----------------------------------------
      1 C                    -0.071930
      2 C                    -0.026973
      3 C                    -0.026973
      4 H                     0.020583
      5 C                    -0.071930
      6 H                     0.020583
      7 C                    -0.031188
      8 C                     0.088186
      9 H                     0.008189
     10 C                    -0.031188
     11 C                    -0.038895
     12 H                     0.019871
     13 C                    -0.038895
     14 H                     0.019871
     15 H                     0.008189
     16 C                    -0.031188
     17 C                    -0.031188
     18 C                     0.055688
     19 C                    -0.071930
     20 C                    -0.071930
     21 C                    -0.026973
     22 C                    -0.026973
     23 C                     0.088186
     24 H                     0.024981
     25 H                     0.032323
     26 H                     0.003190
     27 H                     0.003190
     28 H                     0.019871
     29 H                     0.019871
     30 H                     0.025265
     31 H                     0.025265
     32 H                     0.008189
     33 H                     0.008189
     34 H                     0.020583
     35 H                     0.020583
     36 H                     0.032323
     37 H                     0.024981
  ----------------------------------------
  Sum of atomic charges =     0.000000

 -----------------------------------------------------------------
                    Cartesian Multipole Moments
 -----------------------------------------------------------------
    Charge (ESU x 10^10)
                 0.0000
    Dipole Moment (Debye)
         X       0.0000      Y       0.0000      Z       0.0245
       Tot       0.0245
    Quadrupole Moments (Debye-Ang)
        XX    -111.2007     XY      -0.0000     YY     -99.6532
        XZ       0.0000     YZ      -0.0000     ZZ    -102.1443
    Octopole Moments (Debye-Ang^2)
       XXX      -0.0000    XXY       0.0000    XYY       0.0000
       YYY       0.0000    XXZ      -4.0607    XYZ      -0.0000
       YYZ      -3.7196    XZZ      -0.0000    YZZ       0.0000
       ZZZ      -1.1066
    Hexadecapole Moments (Debye-Ang^3)
      XXXX   -4242.5010   XXXY       0.0000   XXYY    -732.8033
      XYYY      -0.0000   YYYY    -654.1037   XXXZ       0.0000
      XXYZ      -0.0000   XYYZ       0.0000   YYYZ      -0.0000
      XXZZ    -738.0000   XYZZ       0.0000   YYZZ    -213.7638
      XZZZ       0.0000   YZZZ      -0.0000   ZZZZ    -662.4395
 -----------------------------------------------------------------
 Total job time:  7204.44s(wall), 82046.87s(cpu) 
 Wed Dec 11 12:54:24 2024

        *************************************************************
        *                                                           *
        *  Thank you very much for using Q-Chem.  Have a nice day.  *
        *                                                           *
        *************************************************************


