                  Welcome to Q-Chem
     A Quantum Leap Into The Future Of Chemistry


 Q-Chem 6.2 (devel), Q-Chem, Inc., Pleasanton, CA (2024)

 E. Epifanovsky,  A. T. B. Gilbert,  Xintian Feng,  Joonho Lee,  Yuezhi Mao,  
 N. Mardirossian,  P. Pokhilko,  A. White,  M. Wormit,  M. P. Coons,  
 A. L. Dempwolff,  Zhengting Gan,  D. Hait,  P. R. Horn,  L. D. Jacobson,  
 I. Kaliman,  J. Kussmann,  A. W. Lange,  Ka Un Lao,  D. S. Levine,  Jie Liu,  
 S. C. McKenzie,  A. F. Morrison,  K. D. Nanda,  F. Plasser,  D. R. Rehn,  
 M. L. Vidal,  Zhi-Qiang You,  Ying Zhu,  Huseyin Aksu,  B. Alam,  
 B. Albrecht,  A. Aldossary,  E. Alguire,  J. H. Andersen,  
 J. E. Arias-Martinez,  V. Athavale,  D. Barton,  K. Begam,  A. Behn,  
 N. Bellonzi,  Y. A. Bernard,  E. J. Berquist,  H. Burton,  A. Carreras,  
 K. Carter-Fenk,  Mathew Chow,  Romit Chakraborty,  Chandrima Chakravarty,  
 Junhan Chen,  A. D. Chien,  K. D. Closser,  V. Cofer-Shabica,  L. Cunha,  
 S. Dasgupta,  Jia Deng,  Joseph Dickinson,  M. de Wergifosse,  
 M. Diedenhofen,  Hainam Do,  Wenjie Dou,  S. Ehlert,  Po-Tung Fang,  
 S. Fatehi,  Qingguo Feng,  Jonathan Fetherolf,  T. Friedhoff,  
 Thomas Froitzheim,  Sarai Folkestad,  B. Ganoe,  J. Gayvert,  Qinghui Ge,  
 G. Gidofalvi,  M. Gimferrer,  M. Goldey,  Montgomery Gray,  J. Gomes,  
 C. Gonzalez-Espinoza,  S. Gulania,  A. Gunina,  J. A. Gyamfi,  
 M. W. D. Hanson-Heine,  P. H. P. Harbach,  A. W. Hauser,  M. F. Herbst,  
 M. Hernandez Vera,  M. Hodecker,  Z. C. Holden,  S. Houck,  Xunkun Huang,  
 Kerwin Hui,  B. C. Huynh,  K. Ikeda,  M. Ivanov,  Nayanthara K. Jayadev,  
 Hyunjun Ji,  Zuxin Jin,  Hanjie Jiang,  Subrata Jana,  B. Kaduk,  
 S. Kaehler,  R. Kang,  K. Khistyaev,  Jaehoon Kim,  Yongbin Kim,  
 P. Klunzinger,  Z. Koczor-Benda,  Joong Hoon Koh,  D. Kosenkov,  
 Saikiran Kotaru,  L. Koulias,  T. Kowalczyk,  C. M. Krauter,  K. Kue,  
 A. Kunitsa,  T. Kus,  A. Landau,  K. V. Lawler,  D. Lefrancois,  S. Lehtola,  
 Rain Li,  Shaozhi Li,  Tao E. Li,  Yi-Pei Li,  Jiashu Liang,  M. Liebenthal,  
 Hung-Hsuan Lin,  You-Sheng Lin,  Fenglai Liu,  Kuan-Yu Liu,  Xiao Liu,  
 M. Loipersberger,  A. Luenser,  C. Malbon,  Aniket Mandal,  Manisha,  
 A. Manjanath,  P. Manohar,  E. Mansoor,  S. F. Manzer,  Shan-Ping Mao,  
 A. V. Marenich,  T. Markovich,  S. Mason,  F. Matz,  S. A. Maurer,  
 Samuel May,  Alexandra McIsaac,  P. F. McLaughlin,  M. F. S. J. Menger,  
 J.-M. Mewes,  S. A. Mewes,  P. Morgante,  Mohammad Mostafanejad,  
 Madhubani Mukherjee,  J. W. Mullinax,  Quyen Nguyen,  Avik Kumar Ojha,  
 K. J. Oosterbaan,  Eno Paenurk,  Xiaoliang Pan,  G. Paran,  V. Parravicini,  
 Alexander C. Paul,  Suranjan K. Paul,  F. Pavosevic,  Zheng Pei,  S. Prager,  
 E. I. Proynov,  E. Ramos,  B. Rana,  A. E. Rask,  A. Rettig,  R. M. Richard,  
 F. Rob,  E. Rossomme,  T. Scheele,  M. Scheurer,  M. Schneider,  
 P. E. Schneider,  Tim K. Schramm,  N. Sergueev,  S. M. Sharada,  
 Hengyuan Shen,  W. Skomorowski,  D. W. Small,  C. J. Stein,  
 Alistair J. Sterling,  Yingli Su,  Yu-Chuan Su,  E. J. Sundstrom,  
 J. Talbot,  Zhen Tao,  J. Thirman,  Hung-Yi Tsai,  T. Tsuchimochi,  
 N. M. Tubman,  C. Utku,  S. P. Veccham,  O. Vydrov,  Rahel Weiss,  
 J. Wenzel,  Jonathan Wong,  J. Witte,  H. Wu,  Yanze Wu,  A. Yamada,  
 Chou-Hsun Yang,  Kun Yao,  S. Yeganeh,  S. R. Yost,  Qi Yu,  A. Zech,  
 F. Zeller,  Chongxiao Zhao,  Igor Ying Zhang,  Xing Zhang,  Yu Zhang,  
 D. Zuev,  A. Aspuru-Guzik,  A. T. Bell,  N. A. Besley,  K. B. Bravaya,  
 B. R. Brooks,  D. Casanova,  Jeng-Da Chai,  Hsing-Ta Chen,  S. Coriani,  
 C. J. Cramer,  A. E. DePrince, III,  R. A. DiStasio Jr.,  A. Dreuw,  
 B. D. Dunietz,  T. R. Furlani,  W. A. Goddard III,  S. Grimme,  
 S. Hammes-Schiffer,  T. Head-Gordon,  W. J. Hehre,  Chao-Ping Hsu,  
 T.-C. Jagau,  Yousung Jung,  A. Klamt,  Jing Kong,  D. S. Lambrecht,  
 Xiangyuan Li,  WanZhen Liang,  N. J. Mayhall,  C. W. McCurdy,  J. B. Neaton,  
 T. Neudecker,  C. Ochsenfeld,  J. A. Parkhill,  R. Peverati,  
 V. A. Rassolov,  Haisheng Ren,  Yihan Shao,  L. V. Slipchenko,  
 R. P. Steele,  J. E. Subotnik,  A. J. W. Thom,  A. Tkatchenko,  
 D. G. Truhlar,  T. Van Voorhis,  Fan Wang,  T. A. Wesolowski,  K. B. Whaley,  
 H. L. Woodcock III,  P. M. Zimmerman,  S. Faraji,  P. M. W. Gill,  
 M. Head-Gordon,  J. M. Herbert,  A. I. Krylov

 Contributors to earlier versions of Q-Chem not listed above: 
 R. D. Adamson,  B. Austin,  R. Baer,  J. Baker,  G. J. O. Beran,  
 K. Brandhorst,  S. T. Brown,  E. F. C. Byrd,  Arup K. Chakraborty,  
 G. K. L. Chan,  Chun-Min Chang,  Yunqing Chen,  C.-L. Cheng,  
 Siu Hung Chien,  D. M. Chipman,  D. L. Crittenden,  H. Dachsel,  
 R. J. Doerksen,  A. D. Dutoi,  R. G. Edgar,  J. Fosso-Tande,  
 L. Fusti-Molnar,  D. Ghosh,  A. Ghysels,  A. Golubeva-Zadorozhnaya,  
 J. Gonthier,  M. S. Gordon,  S. R. Gwaltney,  G. Hawkins,  J. E. Herr,  
 A. Heyden,  S. Hirata,  E. G. Hohenstein,  G. Kedziora,  F. J. Keil,  
 C. Kelley,  Jihan Kim,  R. A. King,  R. Z. Khaliullin,  P. P. Korambath,  
 W. Kurlancheek,  A. Laurent,  A. M. Lee,  M. S. Lee,  S. V. Levchenko,  
 Ching Yeh Lin,  D. Liotard,  E. Livshits,  R. C. Lochan,  I. Lotan,  
 L. A. Martinez-Martinez,  P. E. Maslen,  N. Nair,  D. P. O'Neill,  
 D. Neuhauser,  E. Neuscamman,  C. M. Oana,  R. Olivares-Amaya,  R. Olson,  
 T. M. Perrine,  B. Peters,  P. A. Pieniazek,  A. Prociuk,  Y. M. Rhee,  
 J. Ritchie,  M. A. Rohrdanz,  E. Rosta,  N. J. Russ,  H. F. Schaefer III,  
 M. W. Schmidt,  N. E. Schultz,  S. Sharma,  N. Shenvi,  C. D. Sherrill,  
 A. C. Simmonett,  A. Sodt,  T. Stein,  D. Stuck,  K. S. Thanthiriwatte,  
 V. Vanovschi,  L. Vogt,  Tao Wang,  A. Warshel,  M. A. Watson,  
 C. F. Williams,  Q. Wu,  X. Xu,  Jun Yang,  W. Zhang,  Yan Zhao

   Please cite Q-Chem as follows:
  "Software for the frontiers of quantum chemistry:
   An overview of developments in the Q-Chem 5 package"
   J. Chem. Phys. 155, 084801 (2021)
   https://doi.org/10.1063/5.0055522 (open access)

 Q-Chem 6.2.1 for Intel X86 EM64T Linux

 Parts of Q-Chem use Armadillo 9.900.5 (Nocturnal Misbehaviour).
 http://arma.sourceforge.net/

 Q-Chem begins on Wed Dec 11 18:45:09 2024  

orc32
 Host: 0

     Scratch files written to /scratch/jia/qchem41798//
 Processing $rem in /qcsoftware/qchem_latest/config/preferences:
 Processing $rem in /home/users/jia/.qchemrc:
 Core orbitals will be frozen

 Checking the input file for inconsistencies... 	...done.

--------------------------------------------------------------
User input:
--------------------------------------------------------------
$molecule
0 1
  C   -2.7066484    0.1195302   -1.1479805
  C   -3.4306474   -1.1086682   -0.7016500
  C   -3.4306474   -1.1086682    0.7016500
  H   -3.7869843   -1.9247700   -1.3411524
  C   -2.7066484    0.1195302    1.1479805
  H   -3.7869843   -1.9247700    1.3411524
  C   -1.2138434   -0.3531764    0.7902200
  C   -3.0892381    1.0908730    0.0000000
  H   -2.8452192    0.4303955    2.1920037
  C   -1.2138434   -0.3531764   -0.7902200
  C   -0.0098143    0.5821955    1.1460598
  H   -1.0435248   -1.3492895    1.2299390
  C   -0.0098143    0.5821955   -1.1460598
  H   -1.0435248   -1.3492895   -1.2299390
  H   -2.8452192    0.4303955   -2.1920037
  C    1.2053991   -0.3346142   -0.7922892
  C    1.2053991   -0.3346142    0.7922892
  C   -0.0178719    1.6176680    0.0000000
  C    2.6850493    0.1198280   -1.1386381
  C    2.6850493    0.1198280    1.1386381
  C    3.4838399   -1.0946154    0.6832800
  C    3.4838399   -1.0946154   -0.6832800
  C    3.0659900    1.1014658    0.0000000
  H   -2.5638386    2.0479656    0.0000000
  H   -4.1730808    1.2933868    0.0000000
  H   -0.0187322    0.9639644    2.1789056
  H   -0.0187322    0.9639644   -2.1789056
  H    1.0467672   -1.3349929   -1.2276010
  H    1.0467672   -1.3349929    1.2276010
  H    0.8662214    2.2607826    0.0000000
  H   -0.8744223    2.2980962    0.0000000
  H    2.8323498    0.4447938   -2.1790187
  H    2.8323498    0.4447938    2.1790187
  H    3.8804338   -1.8753746    1.3404971
  H    3.8804338   -1.8753746   -1.3404971
  H    4.1505476    1.2963620    0.0000000
  H    2.5510919    2.0681593    0.0000000
$end


$rem
   BASIS = cc-pvdz
   GUI  =  2
   MEM_TOTAL  =  300000
   METHOD  =  EOM-CCSD
   SCF_CONVERGENCE  =  8
   IP_STATES = [8,7]
   !CC_DO_DYSON = 1
   CC_TRANS_PROP = 2
   CALC_SOC = 1
$end
--------------------------------------------------------------
 ----------------------------------------------------------------
             Standard Nuclear Orientation (Angstroms)
    I     Atom           X                Y                Z
 ----------------------------------------------------------------
    1      C      -2.7066483787     0.1195301931    -1.1479805000
    2      C      -3.4306473782    -1.1086682072    -0.7016500000
    3      C      -3.4306473782    -1.1086682072     0.7016500000
    4      H      -3.7869842779    -1.9247700073    -1.3411524000
    5      C      -2.7066483787     0.1195301931     1.1479805000
    6      H      -3.7869842779    -1.9247700073     1.3411524000
    7      C      -1.2138433785    -0.3531764062     0.7902200000
    8      C      -3.0892380791     1.0908729930    -0.0000000000
    9      H      -2.8452191789     0.4303954931     2.1920037000
   10      C      -1.2138433785    -0.3531764062    -0.7902200000
   11      C      -0.0098142789     0.5821954943     1.1460598000
   12      H      -1.0435247781    -1.3492895062     1.2299390000
   13      C      -0.0098142789     0.5821954943    -1.1460598000
   14      H      -1.0435247781    -1.3492895062    -1.2299390000
   15      H      -2.8452191789     0.4303954931    -2.1920037000
   16      C       1.2053991215    -0.3346142052    -0.7922892000
   17      C       1.2053991215    -0.3346142052     0.7922892000
   18      C      -0.0178718794     1.6176679943    -0.0000000000
   19      C       2.6850493213     0.1198279954    -1.1386381000
   20      C       2.6850493213     0.1198279954     1.1386381000
   21      C       3.4838399218    -1.0946154043     0.6832800000
   22      C       3.4838399218    -1.0946154043    -0.6832800000
   23      C       3.0659900209     1.1014657955    -0.0000000000
   24      H      -2.5638385795     2.0479655932    -0.0000000000
   25      H      -4.1730807792     1.2933867925    -0.0000000000
   26      H      -0.0187321791     0.9639643943     2.1789056000
   27      H      -0.0187321791     0.9639643943    -2.1789056000
   28      H       1.0467672219    -1.3349929053    -1.2276010000
   29      H       1.0467672219    -1.3349929053     1.2276010000
   30      H       0.8662214204     2.2607825946    -0.0000000000
   31      H      -0.8744222796     2.2980961939    -0.0000000000
   32      H       2.8323498211     0.4447937954    -2.1790187000
   33      H       2.8323498211     0.4447937954     2.1790187000
   34      H       3.8804338221    -1.8753746041     1.3404971000
   35      H       3.8804338221    -1.8753746041    -1.3404971000
   36      H       4.1505476208     1.2963619960    -0.0000000000
   37      H       2.5510919205     2.0681592953    -0.0000000000
 ----------------------------------------------------------------
 Molecular Point Group                 Cs    NOp =  2
 Largest Abelian Subgroup              Cs    NOp =  2
 Nuclear Repulsion Energy =        1258.73071583 hartrees
 There are       61 alpha and       61 beta electrons
 Requested basis set is cc-pVDZ
 There are 162 shells and 338 basis functions
 Total memory of 300000 MB is distributed as follows: 
   MEM_STATIC is set to 192 MB
   QALLOC/CCMAN JOB total memory use is  299808 MB
 Warning: actual memory use might exceed 300000 MB

 Total QAlloc Memory Limit 300000 MB
 Mega-Array Size       188 MB
 MEM_STATIC part       192 MB

 A cutoff of  1.0D-14 yielded  11818 shell pairs
 There are     50826 function pairs (     55999 Cartesian)
 Smallest overlap matrix eigenvalue = 7.93E-04

 Scale SEOQF with 1.000000e-01/1.000000e-01/1.000000e-01

 Standard Electronic Orientation quadrupole field applied
 Nucleus-field energy     =     0.0000000226 hartrees
 Guess from superposition of atomic densities
 Warning:  Energy on first SCF cycle will be non-variational
 SAD guess density has 122.000000 electrons

 -----------------------------------------------------------------------
  General SCF calculation program by
  Eric Jon Sundstrom, Paul Horn, Yuezhi Mao, Dmitri Zuev, Alec White,
  David Stuck, Shaama M.S., Shane Yost, Joonho Lee, David Small,
  Daniel Levine, Susi Lehtola, Hugh Burton, Evgeny Epifanovsky,
  Bang C. Huynh
 -----------------------------------------------------------------------
 Hartree-Fock
 using 16 threads for integral computing
 -------------------------------------------------------
 OpenMP Integral computing Module                
 Release: version 1.0, May 2013, Q-Chem Inc. Pittsburgh 
 -------------------------------------------------------
 A restricted SCF calculation will be
 performed using DIIS
 SCF converges when DIIS error is below 1.0e-08
 ---------------------------------------
  Cycle       Energy         DIIS error
 ---------------------------------------
    1    -663.4357705193      4.37e-02  
    2    -655.1294803257      2.88e-03  
    3    -655.3141698233      7.87e-04  
    4    -655.3289586095      2.99e-04  
    5    -655.3303407539      4.37e-05  
    6    -655.3303963671      1.88e-05  
    7    -655.3304038160      4.19e-06  
    8    -655.3304045351      1.56e-06  
    9    -655.3304046008      5.17e-07  
   10    -655.3304046084      1.07e-07  
   11    -655.3304046090      2.78e-08  
   12    -655.3304046091      8.59e-09  Convergence criterion met
 ---------------------------------------
 SCF time:   CPU 515.53s  wall 39.00s 
 SCF   energy =  -655.33040461
 Total energy =  -655.33040461


 ------------------------------------------------------------------------------

   CCMAN2: suite of methods based on coupled cluster
           and equation of motion theories.

   Components:
   * libvmm-1.3-trunk
     by Evgeny Epifanovsky, Ilya Kaliman.
   * libtensor-2.5-trunk
     by Evgeny Epifanovsky, Michael Wormit, Dmitry Zuev, Sam Manzer, 
        Ilya Kaliman.
   * libcc-2.5-trunk
     by Evgeny Epifanovsky, Arik Landau, Tomasz Kus, Kirill Khistyaev, 
        Dmitry Zuev, Prashant Manohar, Xintian Feng, Anna Krylov, 
        Matthew Goldey, Alec White, Thomas Jagau, Kaushik Nanda, 
        Anastasia Gunina, Alexander Kunitsa, Joonho Lee.

   CCMAN original authors:
   Anna I. Krylov, C. David Sherrill, Steven R. Gwaltney,
   Edward F. C. Byrd (2000)
   Sergey V. Levchenko, Lyudmila V. Slipchenko, Tao Wang,
   Ana-Maria C. Cristian (2003)
   Piotr A. Pieniazek, C. Melania Oana, Evgeny Epifanovsky (2007)
   Prashant Manohar (2009)

 ------------------------------------------------------------------------------


 Allocating and initializing 299808MB of RAM (this may take a while)...
 Calculation will run on 16 cores.


 Alpha MOs, Restricted
 -- Occupied --                  
-11.232 -11.232 -11.232 -11.232 -11.228 -11.228 -11.228 -11.227
  1 A'    1 A"    2 A'    2 A"    3 A'    3 A"    4 A'    5 A'                 
-11.227 -11.227 -11.226 -11.226 -11.225 -11.225 -11.223 -11.221
  6 A'    4 A"    5 A"    6 A"    7 A'    7 A"    8 A'    9 A'                 
-11.214  -1.192  -1.166  -1.111  -1.003  -0.972  -0.966  -0.948
 10 A'   11 A'   12 A'   13 A'    8 A"   14 A'    9 A"   15 A'                 
 -0.942  -0.934  -0.913  -0.784  -0.759  -0.754  -0.744  -0.718
 16 A'   17 A'   10 A"   18 A'   11 A"   19 A'   20 A'   12 A"                 
 -0.708  -0.694  -0.689  -0.685  -0.650  -0.639  -0.634  -0.576
 13 A"   14 A"   21 A'   22 A'   23 A'   24 A'   25 A'   26 A'                 
 -0.552  -0.532  -0.528  -0.520  -0.517  -0.511  -0.497  -0.487
 27 A'   28 A'   15 A"   16 A"   29 A'   30 A'   17 A"   31 A'                 
 -0.485  -0.477  -0.466  -0.460  -0.451  -0.446  -0.437  -0.425
 18 A"   19 A"   32 A'   33 A'   20 A"   34 A'   21 A"   22 A"                 
 -0.421  -0.418  -0.390  -0.328  -0.307
 35 A'   36 A'   23 A"   37 A'   38 A'                                         
 -- Virtual --                   
  0.165   0.172   0.177   0.198   0.209   0.212   0.222   0.233
 24 A"   25 A"   39 A'   40 A'   41 A'   26 A"   42 A'   27 A"                 
  0.233   0.238   0.239   0.242   0.244   0.254   0.261   0.264
 43 A'   28 A"   44 A'   45 A'   46 A'   29 A"   30 A"   47 A'                 
  0.278   0.290   0.302   0.321   0.331   0.335   0.337   0.341
 48 A'   31 A"   49 A'   32 A"   50 A'   33 A"   51 A'   52 A'                 
  0.349   0.365   0.377   0.378   0.390   0.394   0.414   0.417
 53 A'   34 A"   54 A'   35 A"   55 A'   36 A"   56 A'   37 A"                 
  0.418   0.418   0.424   0.458   0.467   0.474   0.481   0.481
 57 A'   38 A"   58 A'   59 A'   39 A"   40 A"   60 A'   41 A"                 
  0.494   0.526   0.562   0.576   0.591   0.600   0.620   0.626
 42 A"   43 A"   44 A"   45 A"   61 A'   62 A'   63 A'   64 A'                 
  0.637   0.648   0.662   0.675   0.710   0.718   0.724   0.732
 65 A'   66 A'   67 A'   68 A'   69 A'   46 A"   70 A'   47 A"                 
  0.748   0.752   0.758   0.761   0.770   0.786   0.813   0.815
 71 A'   48 A"   72 A'   49 A"   73 A'   50 A"   74 A'   51 A"                 
  0.816   0.816   0.829   0.832   0.833   0.833   0.838   0.846
 75 A'   52 A"   53 A"   76 A'   54 A"   77 A'   55 A"   56 A"                 
  0.850   0.855   0.862   0.866   0.871   0.877   0.880   0.890
 78 A'   79 A'   80 A'   81 A'   57 A"   82 A'   58 A"   83 A'                 
  0.895   0.898   0.904   0.907   0.912   0.917   0.920   0.921
 59 A"   84 A'   60 A"   85 A'   61 A"   86 A'   62 A"   87 A'                 
  0.931   0.932   0.949   0.961   0.968   0.978   0.981   0.993
 63 A"   88 A'   64 A"   89 A'   90 A'   65 A"   66 A"   67 A"                 
  0.997   1.008   1.022   1.025   1.054   1.058   1.067   1.069
 91 A'   68 A"   92 A'   93 A'   69 A"   94 A'   70 A"   95 A'                 
  1.083   1.096   1.125   1.141   1.152   1.157   1.165   1.177
 96 A'   97 A'   98 A'   99 A'   71 A"   72 A"  100 A'   73 A"                 
  1.200   1.216   1.225   1.239   1.259   1.291   1.302   1.339
 74 A"  101 A'  102 A'   75 A"  103 A'   76 A"  104 A'  105 A'                 
  1.352   1.359   1.360   1.393   1.394   1.413   1.420   1.437
 77 A"   78 A"  106 A'  107 A'   79 A"  108 A'   80 A"  109 A'                 
  1.478   1.483   1.502   1.508   1.553   1.590   1.599   1.601
110 A'   81 A"  111 A'  112 A'   82 A"   83 A"  113 A'  114 A'                 
  1.609   1.616   1.640   1.646   1.675   1.678   1.688   1.705
 84 A"  115 A'   85 A"  116 A'  117 A'   86 A"   87 A"  118 A'                 
  1.717   1.736   1.758   1.760   1.772   1.780   1.784   1.787
119 A'  120 A'  121 A'  122 A'  123 A'  124 A'   88 A"  125 A'                 
  1.795   1.796   1.817   1.819   1.828   1.830   1.844   1.845
 89 A"  126 A'   90 A"   91 A"   92 A"  127 A'   93 A"  128 A'                 
  1.862   1.870   1.878   1.888   1.891   1.902   1.905   1.922
 94 A"  129 A'  130 A'   95 A"   96 A"  131 A'   97 A"  132 A'                 
  1.930   1.937   1.939   1.955   1.962   1.973   1.984   1.987
 98 A"  133 A'   99 A"  134 A'  135 A'  100 A"  136 A'  101 A"                 
  1.999   2.012   2.017   2.038   2.040   2.048   2.050   2.051
137 A'  102 A"  138 A'  139 A'  103 A"  104 A"  105 A"  140 A'                 
  2.057   2.064   2.066   2.082   2.085   2.098   2.102   2.122
141 A'  106 A"  107 A"  142 A'  143 A'  144 A'  145 A'  108 A"                 
  2.123   2.150   2.152   2.164   2.168   2.178   2.180   2.189
146 A'  147 A'  109 A"  148 A'  110 A"  111 A"  112 A"  113 A"                 
  2.189   2.192   2.201   2.222   2.226   2.236   2.243   2.259
149 A'  114 A"  150 A'  151 A'  152 A'  115 A"  153 A'  116 A"                 
  2.267   2.286   2.292   2.292   2.298   2.323   2.334   2.338
154 A'  117 A"  118 A"  155 A'  119 A"  156 A'  120 A"  121 A"                 
  2.365   2.365   2.382   2.397   2.404   2.407   2.431   2.433
157 A'  122 A"  158 A'  123 A"  159 A'  124 A"  160 A'  125 A"                 
  2.441   2.450   2.460   2.466   2.474   2.476   2.484   2.509
161 A'  126 A"  162 A'  163 A'  127 A"  164 A'  128 A"  165 A'                 
  2.510   2.519   2.541   2.577   2.583   2.591   2.607   2.617
129 A"  166 A'  130 A"  167 A'  168 A'  131 A"  169 A'  170 A'                 
  2.621   2.624   2.643   2.653   2.656   2.666   2.685   2.687
132 A"  133 A"  171 A'  172 A'  134 A"  135 A"  173 A'  136 A"                 
  2.695   2.731   2.735   2.767   2.797   2.813   2.827   2.840
174 A'  137 A"  138 A"  139 A"  140 A"  175 A'  176 A'  141 A"                 
  2.851   2.875   2.887   2.908   2.915   2.934   2.935   2.982
177 A'  178 A'  142 A"  179 A'  180 A'  143 A"  144 A"  181 A'                 
  3.032   3.038   3.058   3.069   3.108   3.110   3.127   3.151
145 A"  182 A'  146 A"  183 A'  147 A"  184 A'  185 A'  186 A'                 
  3.155   3.166   3.191   3.526   3.528
148 A"  187 A'  149 A"  150 A"  151 A"                                         

 Beta MOs, Restricted
 -- Occupied --                  
-11.232 -11.232 -11.232 -11.232 -11.228 -11.228 -11.228 -11.227
  1 A'    1 A"    2 A'    2 A"    3 A'    3 A"    4 A'    5 A'                 
-11.227 -11.227 -11.226 -11.226 -11.225 -11.225 -11.223 -11.221
  6 A'    4 A"    5 A"    6 A"    7 A'    7 A"    8 A'    9 A'                 
-11.214  -1.192  -1.166  -1.111  -1.003  -0.972  -0.966  -0.948
 10 A'   11 A'   12 A'   13 A'    8 A"   14 A'    9 A"   15 A'                 
 -0.942  -0.934  -0.913  -0.784  -0.759  -0.754  -0.744  -0.718
 16 A'   17 A'   10 A"   18 A'   11 A"   19 A'   20 A'   12 A"                 
 -0.708  -0.694  -0.689  -0.685  -0.650  -0.639  -0.634  -0.576
 13 A"   14 A"   21 A'   22 A'   23 A'   24 A'   25 A'   26 A'                 
 -0.552  -0.532  -0.528  -0.520  -0.517  -0.511  -0.497  -0.487
 27 A'   28 A'   15 A"   16 A"   29 A'   30 A'   17 A"   31 A'                 
 -0.485  -0.477  -0.466  -0.460  -0.451  -0.446  -0.437  -0.425
 18 A"   19 A"   32 A'   33 A'   20 A"   34 A'   21 A"   22 A"                 
 -0.421  -0.418  -0.390  -0.328  -0.307
 35 A'   36 A'   23 A"   37 A'   38 A'                                         
 -- Virtual --                   
  0.165   0.172   0.177   0.198   0.209   0.212   0.222   0.233
 24 A"   25 A"   39 A'   40 A'   41 A'   26 A"   42 A'   27 A"                 
  0.233   0.238   0.239   0.242   0.244   0.254   0.261   0.264
 43 A'   28 A"   44 A'   45 A'   46 A'   29 A"   30 A"   47 A'                 
  0.278   0.290   0.302   0.321   0.331   0.335   0.337   0.341
 48 A'   31 A"   49 A'   32 A"   50 A'   33 A"   51 A'   52 A'                 
  0.349   0.365   0.377   0.378   0.390   0.394   0.414   0.417
 53 A'   34 A"   54 A'   35 A"   55 A'   36 A"   56 A'   37 A"                 
  0.418   0.418   0.424   0.458   0.467   0.474   0.481   0.481
 57 A'   38 A"   58 A'   59 A'   39 A"   40 A"   60 A'   41 A"                 
  0.494   0.526   0.562   0.576   0.591   0.600   0.620   0.626
 42 A"   43 A"   44 A"   45 A"   61 A'   62 A'   63 A'   64 A'                 
  0.637   0.648   0.662   0.675   0.710   0.718   0.724   0.732
 65 A'   66 A'   67 A'   68 A'   69 A'   46 A"   70 A'   47 A"                 
  0.748   0.752   0.758   0.761   0.770   0.786   0.813   0.815
 71 A'   48 A"   72 A'   49 A"   73 A'   50 A"   74 A'   51 A"                 
  0.816   0.816   0.829   0.832   0.833   0.833   0.838   0.846
 75 A'   52 A"   53 A"   76 A'   54 A"   77 A'   55 A"   56 A"                 
  0.850   0.855   0.862   0.866   0.871   0.877   0.880   0.890
 78 A'   79 A'   80 A'   81 A'   57 A"   82 A'   58 A"   83 A'                 
  0.895   0.898   0.904   0.907   0.912   0.917   0.920   0.921
 59 A"   84 A'   60 A"   85 A'   61 A"   86 A'   62 A"   87 A'                 
  0.931   0.932   0.949   0.961   0.968   0.978   0.981   0.993
 63 A"   88 A'   64 A"   89 A'   90 A'   65 A"   66 A"   67 A"                 
  0.997   1.008   1.022   1.025   1.054   1.058   1.067   1.069
 91 A'   68 A"   92 A'   93 A'   69 A"   94 A'   70 A"   95 A'                 
  1.083   1.096   1.125   1.141   1.152   1.157   1.165   1.177
 96 A'   97 A'   98 A'   99 A'   71 A"   72 A"  100 A'   73 A"                 
  1.200   1.216   1.225   1.239   1.259   1.291   1.302   1.339
 74 A"  101 A'  102 A'   75 A"  103 A'   76 A"  104 A'  105 A'                 
  1.352   1.359   1.360   1.393   1.394   1.413   1.420   1.437
 77 A"   78 A"  106 A'  107 A'   79 A"  108 A'   80 A"  109 A'                 
  1.478   1.483   1.502   1.508   1.553   1.590   1.599   1.601
110 A'   81 A"  111 A'  112 A'   82 A"   83 A"  113 A'  114 A'                 
  1.609   1.616   1.640   1.646   1.675   1.678   1.688   1.705
 84 A"  115 A'   85 A"  116 A'  117 A'   86 A"   87 A"  118 A'                 
  1.717   1.736   1.758   1.760   1.772   1.780   1.784   1.787
119 A'  120 A'  121 A'  122 A'  123 A'  124 A'   88 A"  125 A'                 
  1.795   1.796   1.817   1.819   1.828   1.830   1.844   1.845
 89 A"  126 A'   90 A"   91 A"   92 A"  127 A'   93 A"  128 A'                 
  1.862   1.870   1.878   1.888   1.891   1.902   1.905   1.922
 94 A"  129 A'  130 A'   95 A"   96 A"  131 A'   97 A"  132 A'                 
  1.930   1.937   1.939   1.955   1.962   1.973   1.984   1.987
 98 A"  133 A'   99 A"  134 A'  135 A'  100 A"  136 A'  101 A"                 
  1.999   2.012   2.017   2.038   2.040   2.048   2.050   2.051
137 A'  102 A"  138 A'  139 A'  103 A"  104 A"  105 A"  140 A'                 
  2.057   2.064   2.066   2.082   2.085   2.098   2.102   2.122
141 A'  106 A"  107 A"  142 A'  143 A'  144 A'  145 A'  108 A"                 
  2.123   2.150   2.152   2.164   2.168   2.178   2.180   2.189
146 A'  147 A'  109 A"  148 A'  110 A"  111 A"  112 A"  113 A"                 
  2.189   2.192   2.201   2.222   2.226   2.236   2.243   2.259
149 A'  114 A"  150 A'  151 A'  152 A'  115 A"  153 A'  116 A"                 
  2.267   2.286   2.292   2.292   2.298   2.323   2.334   2.338
154 A'  117 A"  118 A"  155 A'  119 A"  156 A'  120 A"  121 A"                 
  2.365   2.365   2.382   2.397   2.404   2.407   2.431   2.433
157 A'  122 A"  158 A'  123 A"  159 A'  124 A"  160 A'  125 A"                 
  2.441   2.450   2.460   2.466   2.474   2.476   2.484   2.509
161 A'  126 A"  162 A'  163 A'  127 A"  164 A'  128 A"  165 A'                 
  2.510   2.519   2.541   2.577   2.583   2.591   2.607   2.617
129 A"  166 A'  130 A"  167 A'  168 A'  131 A"  169 A'  170 A'                 
  2.621   2.624   2.643   2.653   2.656   2.666   2.685   2.687
132 A"  133 A"  171 A'  172 A'  134 A"  135 A"  173 A'  136 A"                 
  2.695   2.731   2.735   2.767   2.797   2.813   2.827   2.840
174 A'  137 A"  138 A"  139 A"  140 A"  175 A'  176 A'  141 A"                 
  2.851   2.875   2.887   2.908   2.915   2.934   2.935   2.982
177 A'  178 A'  142 A"  179 A'  180 A'  143 A"  144 A"  181 A'                 
  3.032   3.038   3.058   3.069   3.108   3.110   3.127   3.151
145 A"  182 A'  146 A"  183 A'  147 A"  184 A'  185 A'  186 A'                 
  3.155   3.166   3.191   3.526   3.528
148 A"  187 A'  149 A"  150 A"  151 A"                                         

 Occupation and symmetry of molecular orbitals

 Point group: Cs (2 irreducible representations).

                           A'   A"    All 
 ------------------------------------------
 All molecular orbitals:
  - Alpha                  187  151   338 
  - Beta                   187  151   338 
 ------------------------------------------
 Alpha orbitals:
  - Frozen occupied        10   7     17  
  - Active occupied        28   16    44  
  - Active virtual         149  128   277 
  - Frozen virtual         0    0     0   
 ------------------------------------------
 Beta orbitals:
  - Frozen occupied        10   7     17  
  - Active occupied        28   16    44  
  - Active virtual         149  128   277 
  - Frozen virtual         0    0     0   
 ------------------------------------------

 Import integrals:   CPU 0.00 s  wall 0.00 s

 Import integrals:   CPU 1159.57 s  wall 115.89 s


 MP2  CPU 5.68 s  wall 2.24 s
Running a double precision version
           CCSD T amplitudes will be solved using DIIS.

           Start     Size      MaxIter   EConv     TConv     
           3         7         100       1.00e-06  1.00e-04  
 ------------------------------------------------------------------------------
           Energy (a.u.)   Ediff      Tdiff       Comment
 ------------------------------------------------------------------------------
          -657.68010869                           
     1    -657.72225916   4.22e-02   1.54e+00     Step took 01.19.
     2    -657.78754754   6.53e-02   2.03e-01     
     3    -657.79320010   5.65e-03   6.27e-02     
     4    -657.79934871   6.15e-03   2.13e-02     Switched to DIIS steps.
     5    -657.80136458   2.02e-03   1.43e-02     
     6    -657.80147228   1.08e-04   3.02e-03     
     7    -657.80145735   1.49e-05   1.43e-03     
     8    -657.80145173   5.62e-06   3.29e-04     
     9    -657.80145137   3.53e-07   1.37e-04     
    10    -657.80145118   1.91e-07   3.05e-05     
 ------------------------------------------------------------------------------
          -657.80145118                           CCSD T converged.

 End of double precision
 SCF energy                 = -655.33040461
 MP2 energy                 = -657.68010869
 CCSD correlation energy    =   -2.47104657
 CCSD total energy          = -657.80145118

 CCSD  T1^2 = 0.0170  T2^2 = 0.9675  Leading amplitudes:

 Amplitude    Orbitals with energies
 -0.0167       38 (A') A                 ->    71 (A') A                  
              -0.3067                          0.7480                     
 -0.0167       38 (A') B                 ->    71 (A') B                  
              -0.3067                          0.7480                     
 -0.0165       23 (A") A                 ->    25 (A") A                  
              -0.3899                          0.1717                     
 -0.0165       23 (A") B                 ->    25 (A") B                  
              -0.3899                          0.1717                     

 Amplitude    Orbitals with energies
 -0.0775       38 (A') A     38 (A') B   ->    24 (A") A     24 (A") B    
              -0.3067       -0.3067            0.1648        0.1648       
  0.0775       38 (A') A     38 (A') B   ->    24 (A") B     24 (A") A    
              -0.3067       -0.3067            0.1648        0.1648       
  0.0775       38 (A') B     38 (A') A   ->    24 (A") A     24 (A") B    
              -0.3067       -0.3067            0.1648        0.1648       
 -0.0775       38 (A') B     38 (A') A   ->    24 (A") B     24 (A") A    
              -0.3067       -0.3067            0.1648        0.1648       

 Computing CCSD intermediates for later calculations in double precision
 Finished.

Running a double precision version
           CCSD Lambda amplitudes will be solved using DIIS.
           Start     Size      MaxIter   EConv     LConv     
           3         7         100       1.00e-06  1.00e-04  
 ------------------------------------------------------------------------------
            Enorm      Ldiff       Comment
 ------------------------------------------------------------------------------
     1     7.30e-02   6.27e-02     
     2     1.25e-02   4.37e-03     
     3     4.76e-03   2.37e-03     
     4     1.76e-03   8.47e-04     Switched to DIIS steps.
     5     6.22e-04   2.71e-04     
     6     2.68e-04   6.34e-05     
     7     7.76e-05   1.00e-05     
     8     3.40e-05   6.45e-07     
     9     1.19e-05   8.99e-07     
    10     4.73e-06   4.06e-07     
    11     1.81e-06   1.29e-07     
    12     6.29e-07   6.65e-08     
 ------------------------------------------------------------------------------
                                   CCSD Lambda converged.

 Reference state properties
S^2 calculation will be performed in  double precision
 <S^2> = -0.000000


 CCSD  CPU 22652.40 s  wall 1494.99 s
        Solving for EOMIP-CCSD A' transitions.

Running a double precision version
      EOMIP-CCSD/MP2 right amplitudes will be solved using Davidson.
        Amplitudes will be solved using standard  algorithm.
     Hard-coded thresholds: 
     LinDepThresh=1.00e-15  NormThresh=1.00e-06  ReorthogonThresh=1.00e-02

      Roots     MaxVec    MaxIter   Precond   Conv      Shift    
      8         120       60        1         1.00e-05  0.00e+00  
 ------------------------------------------------------------------------------
      Iter ConvRoots NVecs ResNorm^2 Current eigenvalues (eV)
 ------------------------------------------------------------------------------
      0    0      8     1.32e-01   10.5362   11.0806   13.2424   13.2730   13.9887   14.2598   14.4344   14.9000   
      1    0      16    1.82e-02   8.3491   8.9591   10.4740   10.5215   11.1241   11.4008   11.6629   12.1835   
      2    0      24    6.75e-04   8.0160   8.6224   10.1136   10.1574   10.7432   11.0138   11.2875   11.7998   
Found complex roots...
      3    0      32    7.38e-05   8.0011   8.6055   10.1000   10.1437   10.7266   10.9950   11.2704   11.7755   
      4    4      40    1.22e-05   8.0013*  8.6051   10.1004*  10.1436   10.7270   10.9956*  11.2705*  11.7743   
      5    8      44    5.28e-06   8.0012*  8.6045*  10.1003*  10.1430*  10.7264*  10.9956*  11.2705*  11.7734*  

     Davidson procedure converged

 EOMIP transition 1/A'
 Total energy = -657.50741069 a.u.  Excitation energy = 8.0012 eV.
 R1^2 = 0.9389  R2^2 = 0.0611  Res^2 = 8.52e-06
 Conv-d = yes

 Amplitude    Transitions between orbitals
 -0.9603       38 (A') A                 ->    infty        
 -0.0792       35 (A') A                 ->    infty        
 -0.0739       37 (A') A                 ->    infty        
  0.0375       32 (A') A                 ->    infty        

              Summary of significant orbitals:

               Number  Type             Irrep      Energy
               51      Occ  Alpha      32 (A')     -0.4663
               57      Occ  Alpha      35 (A')     -0.4209
               60      Occ  Alpha      37 (A')     -0.3284
               61      Occ  Alpha      38 (A')     -0.3067


 EOMIP transition 2/A'
 Total energy = -657.48524074 a.u.  Excitation energy = 8.6045 eV.
 R1^2 = 0.9379  R2^2 = 0.0621  Res^2 = 1.46e-06
 Conv-d = yes

 Amplitude    Transitions between orbitals
 -0.9629       37 (A') A                 ->    infty        
  0.0777       38 (A') A                 ->    infty        
 -0.0451       30 (A') A                 ->    infty        
 -0.0259       35 (A') A                 ->    infty        

              Summary of significant orbitals:

               Number  Type             Irrep      Energy
               46      Occ  Alpha      30 (A')     -0.5112
               57      Occ  Alpha      35 (A')     -0.4209
               60      Occ  Alpha      37 (A')     -0.3284
               61      Occ  Alpha      38 (A')     -0.3067


 EOMIP transition 3/A'
 Total energy = -657.43027280 a.u.  Excitation energy = 10.1003 eV.
 R1^2 = 0.9304  R2^2 = 0.0696  Res^2 = 7.12e-06
 Conv-d = yes

 Amplitude    Transitions between orbitals
  0.9553       36 (A') A                 ->    infty        
  0.1171       35 (A') A                 ->    infty        
 -0.0371       34 (A') A                 ->    infty        
 -0.0315       38 (A') A                 ->    infty        

              Summary of significant orbitals:

               Number  Type             Irrep      Energy
               54      Occ  Alpha      34 (A')     -0.4456
               57      Occ  Alpha      35 (A')     -0.4209
               58      Occ  Alpha      36 (A')     -0.4185
               61      Occ  Alpha      38 (A')     -0.3067


 EOMIP transition 4/A'
 Total energy = -657.42870263 a.u.  Excitation energy = 10.1430 eV.
 R1^2 = 0.9292  R2^2 = 0.0708  Res^2 = 2.21e-06
 Conv-d = yes

 Amplitude    Transitions between orbitals
 -0.9486       35 (A') A                 ->    infty        
  0.1206       36 (A') A                 ->    infty        
  0.0828       34 (A') A                 ->    infty        
  0.0713       38 (A') A                 ->    infty        

              Summary of significant orbitals:

               Number  Type             Irrep      Energy
               54      Occ  Alpha      34 (A')     -0.4456
               57      Occ  Alpha      35 (A')     -0.4209
               58      Occ  Alpha      36 (A')     -0.4185
               61      Occ  Alpha      38 (A')     -0.3067


 EOMIP transition 5/A'
 Total energy = -657.40726433 a.u.  Excitation energy = 10.7264 eV.
 R1^2 = 0.9273  R2^2 = 0.0727  Res^2 = 2.52e-06
 Conv-d = yes

 Amplitude    Transitions between orbitals
  0.9443       34 (A') A                 ->    infty        
  0.1564       32 (A') A                 ->    infty        
  0.0786       35 (A') A                 ->    infty        
 -0.0364       33 (A') A                 ->    infty        

              Summary of significant orbitals:

               Number  Type             Irrep      Energy
               51      Occ  Alpha      32 (A')     -0.4663
               52      Occ  Alpha      33 (A')     -0.4601
               54      Occ  Alpha      34 (A')     -0.4456
               57      Occ  Alpha      35 (A')     -0.4209


 EOMIP transition 6/A'
 Total energy = -657.39736992 a.u.  Excitation energy = 10.9956 eV.
 R1^2 = 0.9272  R2^2 = 0.0728  Res^2 = 5.50e-06
 Conv-d = yes

 Amplitude    Transitions between orbitals
 -0.9560       33 (A') A                 ->    infty        
 -0.1054       32 (A') A                 ->    infty        
 -0.0248       15 (A') A                 ->    infty        
 -0.0200       34 (A') A                 ->    infty        

              Summary of significant orbitals:

               Number  Type             Irrep      Energy
               24      Occ  Alpha      15 (A')     -0.9478
               51      Occ  Alpha      32 (A')     -0.4663
               52      Occ  Alpha      33 (A')     -0.4601
               54      Occ  Alpha      34 (A')     -0.4456


 EOMIP transition 7/A'
 Total energy = -657.38726752 a.u.  Excitation energy = 11.2705 eV.
 R1^2 = 0.9272  R2^2 = 0.0728  Res^2 = 7.78e-06
 Conv-d = yes

 Amplitude    Transitions between orbitals
  0.9413       32 (A') A                 ->    infty        
 -0.1599       34 (A') A                 ->    infty        
 -0.1007       33 (A') A                 ->    infty        
  0.0479       38 (A') A                 ->    infty        

              Summary of significant orbitals:

               Number  Type             Irrep      Energy
               51      Occ  Alpha      32 (A')     -0.4663
               52      Occ  Alpha      33 (A')     -0.4601
               54      Occ  Alpha      34 (A')     -0.4456
               61      Occ  Alpha      38 (A')     -0.3067


 EOMIP transition 8/A'
 Total energy = -657.36878748 a.u.  Excitation energy = 11.7734 eV.
 R1^2 = 0.9257  R2^2 = 0.0743  Res^2 = 7.13e-06
 Conv-d = yes

 Amplitude    Transitions between orbitals
  0.9595       31 (A') A                 ->    infty        
 -0.0454       25 (A') A                 ->    infty        
 -0.0277       28 (A') A                 ->    infty        
  0.0230       20 (A') A                 ->    infty        

              Summary of significant orbitals:

               Number  Type             Irrep      Energy
               31      Occ  Alpha      20 (A')     -0.7440
               39      Occ  Alpha      25 (A')     -0.6344
               42      Occ  Alpha      28 (A')     -0.5315
               48      Occ  Alpha      31 (A')     -0.4866


Running a double precision version
      EOMIP-CCSD/MP2 left amplitudes will be solved using Davidson.
        Amplitudes will be solved using MOM  algorithm.
     Hard-coded thresholds: 
     LinDepThresh=1.00e-15  NormThresh=1.00e-06  ReorthogonThresh=1.00e-02

      Roots     MaxVec    MaxIter   Precond   Conv      Shift    
      8         120       60        1         1.00e-05  0.00e+00  
 ------------------------------------------------------------------------------
      Iter ConvRoots NVecs ResNorm^2 Current eigenvalues (eV)
 ------------------------------------------------------------------------------
      0    0      8     6.40e-03   8.0012   8.6045   10.1003   10.1430   10.7264   10.9956   11.2705   11.7734   
      1    0      16    6.10e-04   8.0007   8.6044   10.0998   10.1428   10.7262   10.9952   11.2701   11.7729   
      2    0      24    2.50e-05   8.0009   8.6044   10.0999   10.1429   10.7262   10.9953   11.2702   11.7729   
      3    7      32    3.52e-06   8.0009*  8.6044*  10.0999*  10.1429*  10.7262   10.9953*  11.2701*  11.7729*  
      4    8      33    3.06e-06   8.0009*  8.6044*  10.0999*  10.1429*  10.7262*  10.9953*  11.2701*  11.7729*  

     Davidson procedure converged

 EOMIP-CCSD transition 1/A'
S^2 calculation will be performed in  double precision
 EOMIP-CCSD transition 2/A'
S^2 calculation will be performed in  double precision
 EOMIP-CCSD transition 3/A'
S^2 calculation will be performed in  double precision
 EOMIP-CCSD transition 4/A'
S^2 calculation will be performed in  double precision
 EOMIP-CCSD transition 5/A'
S^2 calculation will be performed in  double precision
 EOMIP-CCSD transition 6/A'
S^2 calculation will be performed in  double precision
 EOMIP-CCSD transition 7/A'
S^2 calculation will be performed in  double precision
 EOMIP-CCSD transition 8/A'
S^2 calculation will be performed in  double precision
 Excited state properties for  EOMIP-CCSD transition 1/A'
 Dipole moment (a.u.): 2.427659 (X -2.290886, Y -0.803350, Z 0.000000)
 R-squared (a.u.): 3688.367815 (XX 2738.156397, YY 470.726219, ZZ 479.485199)
 Gauge origin (a.u.): (0.000000, 0.000000, 0.000000)
 Angular momentum (a.u.) against gauge origin: 
 (X 0.000000i, Y 0.000000i, Z -0.114083i)
 Traces of the OPDMs: Tr(AA) 60.000000, Tr(BB) 61.000000
 <S^2> = 0.750000

 Excited state properties for  EOMIP-CCSD transition 2/A'
 Dipole moment (a.u.): 2.635791 (X 2.476759, Y -0.901698, Z 0.000000)
 R-squared (a.u.): 3686.492608 (XX 2736.220476, YY 470.560081, ZZ 479.712051)
 Gauge origin (a.u.): (0.000000, 0.000000, 0.000000)
 Angular momentum (a.u.) against gauge origin: 
 (X 0.000000i, Y 0.000000i, Z 0.117159i)
 Traces of the OPDMs: Tr(AA) 60.000000, Tr(BB) 61.000000
 <S^2> = 0.750000

 Excited state properties for  EOMIP-CCSD transition 3/A'
 Dipole moment (a.u.): 0.377800 (X 0.319758, Y 0.201215, Z 0.000000)
 R-squared (a.u.): 3702.393679 (XX 2753.485748, YY 471.768366, ZZ 477.139565)
 Gauge origin (a.u.): (0.000000, 0.000000, 0.000000)
 Angular momentum (a.u.) against gauge origin: 
 (X 0.000000i, Y 0.000000i, Z 0.046608i)
 Traces of the OPDMs: Tr(AA) 60.000000, Tr(BB) 61.000000
 <S^2> = 0.750000

 Excited state properties for  EOMIP-CCSD transition 4/A'
 Dipole moment (a.u.): 0.431268 (X -0.204607, Y 0.379642, Z 0.000000)
 R-squared (a.u.): 3699.059083 (XX 2750.002442, YY 470.333410, ZZ 478.723231)
 Gauge origin (a.u.): (0.000000, 0.000000, 0.000000)
 Angular momentum (a.u.) against gauge origin: 
 (X 0.000000i, Y 0.000000i, Z -0.047308i)
 Traces of the OPDMs: Tr(AA) 60.000000, Tr(BB) 61.000000
 <S^2> = 0.750000

 Excited state properties for  EOMIP-CCSD transition 5/A'
 Dipole moment (a.u.): 0.075467 (X -0.070113, Y 0.027919, Z 0.000000)
 R-squared (a.u.): 3699.391512 (XX 2749.380214, YY 471.940496, ZZ 478.070802)
 Gauge origin (a.u.): (0.000000, 0.000000, 0.000000)
 Angular momentum (a.u.) against gauge origin: 
 (X 0.000000i, Y 0.000000i, Z 0.002897i)
 Traces of the OPDMs: Tr(AA) 60.000000, Tr(BB) 61.000000
 <S^2> = 0.750000

 Excited state properties for  EOMIP-CCSD transition 6/A'
 Dipole moment (a.u.): 0.425232 (X 0.326065, Y 0.272954, Z 0.000000)
 R-squared (a.u.): 3702.065216 (XX 2753.557737, YY 469.509892, ZZ 478.997588)
 Gauge origin (a.u.): (0.000000, 0.000000, 0.000000)
 Angular momentum (a.u.) against gauge origin: 
 (X 0.000000i, Y 0.000000i, Z -0.002738i)
 Traces of the OPDMs: Tr(AA) 60.000000, Tr(BB) 61.000000
 <S^2> = 0.750000

 Excited state properties for  EOMIP-CCSD transition 7/A'
 Dipole moment (a.u.): 0.187779 (X -0.103363, Y 0.156770, Z 0.000000)
 R-squared (a.u.): 3695.407628 (XX 2745.122606, YY 470.752306, ZZ 479.532715)
 Gauge origin (a.u.): (0.000000, 0.000000, 0.000000)
 Angular momentum (a.u.) against gauge origin: 
 (X 0.000000i, Y 0.000000i, Z 0.002876i)
 Traces of the OPDMs: Tr(AA) 60.000000, Tr(BB) 61.000000
 <S^2> = 0.750000

 Excited state properties for  EOMIP-CCSD transition 8/A'
 Dipole moment (a.u.): 0.280468 (X -0.218032, Y 0.176420, Z 0.000000)
 R-squared (a.u.): 3690.537804 (XX 2740.507154, YY 470.648363, ZZ 479.382286)
 Gauge origin (a.u.): (0.000000, 0.000000, 0.000000)
 Angular momentum (a.u.) against gauge origin: 
 (X 0.000000i, Y 0.000000i, Z -0.015265i)
 Traces of the OPDMs: Tr(AA) 60.000000, Tr(BB) 61.000000
 <S^2> = 0.750000

        Solving for EOMIP-CCSD A" transitions.

Running a double precision version
      EOMIP-CCSD/MP2 right amplitudes will be solved using Davidson.
        Amplitudes will be solved using standard  algorithm.
     Hard-coded thresholds: 
     LinDepThresh=1.00e-15  NormThresh=1.00e-06  ReorthogonThresh=1.00e-02

      Roots     MaxVec    MaxIter   Precond   Conv      Shift    
      7         120       60        1         1.00e-05  0.00e+00  
 ------------------------------------------------------------------------------
      Iter ConvRoots NVecs ResNorm^2 Current eigenvalues (eV)
 ------------------------------------------------------------------------------
      0    0      7     1.41e-01   12.6325   13.3821   13.7139   14.0542   14.7381   14.8915   15.1798   
      1    0      14    1.90e-02   9.6586   10.6432   10.9537   11.2681   11.8918   12.1195   12.3877   
      2    0      21    6.30e-04   9.2646   10.2821   10.5917   10.8886   11.4854   11.7434   11.9997   
      3    0      28    6.21e-05   9.2520   10.2707   10.5809   10.8714   11.4667   11.7256   11.9780   
      4    4      35    9.92e-06   9.2520   10.2711*  10.5810*  10.8717*  11.4667   11.7260*  11.9783   
      5    7      38    4.70e-06   9.2518*  10.2711*  10.5810*  10.8717*  11.4662*  11.7259*  11.9778*  

     Davidson procedure converged

 EOMIP transition 1/A"
 Total energy = -657.46145526 a.u.  Excitation energy = 9.2518 eV.
 R1^2 = 0.9275  R2^2 = 0.0725  Res^2 = 1.66e-06
 Conv-d = yes

 Amplitude    Transitions between orbitals
  0.9624       23 (A") A                 ->    infty        
  0.0211       14 (A") A                 ->    infty        
 -0.0172       21 (A") A                 ->    infty        
  0.0171       18 (A") A                 ->    infty        

              Summary of significant orbitals:

               Number  Type             Irrep      Energy
               34      Occ  Alpha      14 (A")     -0.6943
               49      Occ  Alpha      18 (A")     -0.4854
               55      Occ  Alpha      21 (A")     -0.4369
               59      Occ  Alpha      23 (A")     -0.3899


 EOMIP transition 2/A"
 Total energy = -657.42399425 a.u.  Excitation energy = 10.2711 eV.
 R1^2 = 0.9306  R2^2 = 0.0694  Res^2 = 4.65e-06
 Conv-d = yes

 Amplitude    Transitions between orbitals
 -0.9622       22 (A") A                 ->    infty        
 -0.0390       21 (A") A                 ->    infty        
  0.0366       20 (A") A                 ->    infty        
  0.0324       17 (A") A                 ->    infty        

              Summary of significant orbitals:

               Number  Type             Irrep      Energy
               47      Occ  Alpha      17 (A")     -0.4968
               53      Occ  Alpha      20 (A")     -0.4508
               55      Occ  Alpha      21 (A")     -0.4369
               56      Occ  Alpha      22 (A")     -0.4254


 EOMIP transition 3/A"
 Total energy = -657.41260575 a.u.  Excitation energy = 10.5810 eV.
 R1^2 = 0.9293  R2^2 = 0.0707  Res^2 = 5.34e-06
 Conv-d = yes

 Amplitude    Transitions between orbitals
 -0.9611       21 (A") A                 ->    infty        
  0.0533       18 (A") A                 ->    infty        
  0.0398       22 (A") A                 ->    infty        
  0.0225       20 (A") A                 ->    infty        

              Summary of significant orbitals:

               Number  Type             Irrep      Energy
               49      Occ  Alpha      18 (A")     -0.4854
               53      Occ  Alpha      20 (A")     -0.4508
               55      Occ  Alpha      21 (A")     -0.4369
               56      Occ  Alpha      22 (A")     -0.4254


 EOMIP transition 4/A"
 Total energy = -657.40192491 a.u.  Excitation energy = 10.8717 eV.
 R1^2 = 0.9281  R2^2 = 0.0719  Res^2 = 5.92e-06
 Conv-d = yes

 Amplitude    Transitions between orbitals
  0.9589       20 (A") A                 ->    infty        
 -0.0565       17 (A") A                 ->    infty        
  0.0469       19 (A") A                 ->    infty        
  0.0329       22 (A") A                 ->    infty        

              Summary of significant orbitals:

               Number  Type             Irrep      Energy
               47      Occ  Alpha      17 (A")     -0.4968
               50      Occ  Alpha      19 (A")     -0.4771
               53      Occ  Alpha      20 (A")     -0.4508
               56      Occ  Alpha      22 (A")     -0.4254


 EOMIP transition 5/A"
 Total energy = -657.38007736 a.u.  Excitation energy = 11.4662 eV.
 R1^2 = 0.9242  R2^2 = 0.0758  Res^2 = 3.74e-06
 Conv-d = yes

 Amplitude    Transitions between orbitals
  0.9575       19 (A") A                 ->    infty        
 -0.0582       18 (A") A                 ->    infty        
 -0.0491       20 (A") A                 ->    infty        
 -0.0203       12 (A") A                 ->    infty        

              Summary of significant orbitals:

               Number  Type             Irrep      Energy
               32      Occ  Alpha      12 (A")     -0.7180
               49      Occ  Alpha      18 (A")     -0.4854
               50      Occ  Alpha      19 (A")     -0.4771
               53      Occ  Alpha      20 (A")     -0.4508


 EOMIP transition 6/A"
 Total energy = -657.37053130 a.u.  Excitation energy = 11.7259 eV.
 R1^2 = 0.9267  R2^2 = 0.0733  Res^2 = 6.32e-06
 Conv-d = yes

 Amplitude    Transitions between orbitals
 -0.9585       18 (A") A                 ->    infty        
 -0.0584       19 (A") A                 ->    infty        
 -0.0554       21 (A") A                 ->    infty        
 -0.0238       9 (A") A                  ->    infty        

              Summary of significant orbitals:

               Number  Type             Irrep      Energy
               23      Occ  Alpha       9 (A")     -0.9663
               49      Occ  Alpha      18 (A")     -0.4854
               50      Occ  Alpha      19 (A")     -0.4771
               55      Occ  Alpha      21 (A")     -0.4369


 EOMIP transition 7/A"
 Total energy = -657.36127401 a.u.  Excitation energy = 11.9778 eV.
 R1^2 = 0.9257  R2^2 = 0.0743  Res^2 = 5.24e-06
 Conv-d = yes

 Amplitude    Transitions between orbitals
 -0.9588       17 (A") A                 ->    infty        
 -0.0571       20 (A") A                 ->    infty        
 -0.0360       22 (A") A                 ->    infty        
  0.0293       8 (A") A                  ->    infty        

              Summary of significant orbitals:

               Number  Type             Irrep      Energy
               21      Occ  Alpha       8 (A")     -1.0032
               47      Occ  Alpha      17 (A")     -0.4968
               53      Occ  Alpha      20 (A")     -0.4508
               56      Occ  Alpha      22 (A")     -0.4254


Running a double precision version
      EOMIP-CCSD/MP2 left amplitudes will be solved using Davidson.
        Amplitudes will be solved using MOM  algorithm.
     Hard-coded thresholds: 
     LinDepThresh=1.00e-15  NormThresh=1.00e-06  ReorthogonThresh=1.00e-02

      Roots     MaxVec    MaxIter   Precond   Conv      Shift    
      7         120       60        1         1.00e-05  0.00e+00  
 ------------------------------------------------------------------------------
      Iter ConvRoots NVecs ResNorm^2 Current eigenvalues (eV)
 ------------------------------------------------------------------------------
      0    0      7     7.03e-03   9.2518   10.2711   10.5810   10.8717   11.4662   11.7259   11.9778   
      1    0      14    6.71e-04   9.2517   10.2708   10.5807   10.8712   11.4660   11.7256   11.9775   
      2    0      21    2.59e-05   9.2517   10.2709   10.5808   10.8714   11.4660   11.7257   11.9774   
      3    7      28    2.35e-06   9.2518*  10.2709*  10.5808*  10.8714*  11.4661*  11.7257*  11.9774*  

     Davidson procedure converged

 EOMIP-CCSD transition 1/A"
S^2 calculation will be performed in  double precision
 EOMIP-CCSD transition 2/A"
S^2 calculation will be performed in  double precision
 EOMIP-CCSD transition 3/A"
S^2 calculation will be performed in  double precision
 EOMIP-CCSD transition 4/A"
S^2 calculation will be performed in  double precision
 EOMIP-CCSD transition 5/A"
S^2 calculation will be performed in  double precision
 EOMIP-CCSD transition 6/A"
S^2 calculation will be performed in  double precision
 EOMIP-CCSD transition 7/A"
S^2 calculation will be performed in  double precision
 Excited state properties for  EOMIP-CCSD transition 1/A"
 Dipole moment (a.u.): 0.118926 (X -0.024853, Y -0.116301, Z 0.000000)
 R-squared (a.u.): 3698.613281 (XX 2748.678429, YY 472.112577, ZZ 477.822275)
 Gauge origin (a.u.): (0.000000, 0.000000, 0.000000)
 Angular momentum (a.u.) against gauge origin: 
 (X 0.000000i, Y 0.000000i, Z 0.005178i)
 Traces of the OPDMs: Tr(AA) 60.000000, Tr(BB) 61.000000
 <S^2> = 0.750000

 Excited state properties for  EOMIP-CCSD transition 2/A"
 Dipole moment (a.u.): 0.729773 (X 0.702855, Y 0.196374, Z 0.000000)
 R-squared (a.u.): 3703.720642 (XX 2755.167180, YY 470.218408, ZZ 478.335055)
 Gauge origin (a.u.): (0.000000, 0.000000, 0.000000)
 Angular momentum (a.u.) against gauge origin: 
 (X 0.000000i, Y 0.000000i, Z 0.000068i)
 Traces of the OPDMs: Tr(AA) 60.000000, Tr(BB) 61.000000
 <S^2> = 0.750000

 Excited state properties for  EOMIP-CCSD transition 3/A"
 Dipole moment (a.u.): 0.032695 (X -0.021954, Y -0.024228, Z 0.000000)
 R-squared (a.u.): 3698.294086 (XX 2748.514516, YY 471.415671, ZZ 478.363900)
 Gauge origin (a.u.): (0.000000, 0.000000, 0.000000)
 Angular momentum (a.u.) against gauge origin: 
 (X 0.000000i, Y 0.000000i, Z -0.034948i)
 Traces of the OPDMs: Tr(AA) 60.000000, Tr(BB) 61.000000
 <S^2> = 0.750000

 Excited state properties for  EOMIP-CCSD transition 4/A"
 Dipole moment (a.u.): 0.515989 (X -0.464553, Y 0.224579, Z 0.000000)
 R-squared (a.u.): 3695.767770 (XX 2747.214191, YY 471.265932, ZZ 477.287648)
 Gauge origin (a.u.): (0.000000, 0.000000, 0.000000)
 Angular momentum (a.u.) against gauge origin: 
 (X 0.000000i, Y 0.000000i, Z 0.043145i)
 Traces of the OPDMs: Tr(AA) 60.000000, Tr(BB) 61.000000
 <S^2> = 0.750000

 Excited state properties for  EOMIP-CCSD transition 5/A"
 Dipole moment (a.u.): 0.393230 (X 0.380254, Y -0.100186, Z 0.000000)
 R-squared (a.u.): 3696.719832 (XX 2747.563135, YY 471.752332, ZZ 477.404366)
 Gauge origin (a.u.): (0.000000, 0.000000, 0.000000)
 Angular momentum (a.u.) against gauge origin: 
 (X 0.000000i, Y 0.000000i, Z -0.012046i)
 Traces of the OPDMs: Tr(AA) 60.000000, Tr(BB) 61.000000
 <S^2> = 0.750000

 Excited state properties for  EOMIP-CCSD transition 6/A"
 Dipole moment (a.u.): 0.556038 (X 0.537509, Y 0.142347, Z 0.000000)
 R-squared (a.u.): 3696.740064 (XX 2747.921226, YY 472.565624, ZZ 476.253214)
 Gauge origin (a.u.): (0.000000, 0.000000, 0.000000)
 Angular momentum (a.u.) against gauge origin: 
 (X 0.000000i, Y 0.000000i, Z -0.002589i)
 Traces of the OPDMs: Tr(AA) 60.000000, Tr(BB) 61.000000
 <S^2> = 0.750000

 Excited state properties for  EOMIP-CCSD transition 7/A"
 Dipole moment (a.u.): 0.527151 (X -0.359326, Y 0.385711, Z 0.000000)
 R-squared (a.u.): 3699.867900 (XX 2751.981342, YY 472.373610, ZZ 475.512948)
 Gauge origin (a.u.): (0.000000, 0.000000, 0.000000)
 Angular momentum (a.u.) against gauge origin: 
 (X 0.000000i, Y 0.000000i, Z 0.029525i)
 Traces of the OPDMs: Tr(AA) 60.000000, Tr(BB) 61.000000
 <S^2> = 0.750000


 EOMIP-CCSD  CPU 4887.07 s  wall 382.07 s

 Start computing the transition properties

 ------------------------------------------------------------------------------
 The new SOC module will be executed 
 Authors: Pavel Pokhilko and Evgeny Epifanovsky 
 SOC 1e and mf integrals are evaluating by libqints...
 ------------------------------------------------------------------------------
 State A: eomip_ccsd/a: 1/A'
 State B: eomip_ccsd/a: 2/A'
 Energy GAP = 0.022170 a.u. = 0.603275 eV
 Transition dipole moment (a.u.):
   A->B: 3.509144 (X 3.508948, Y 0.037076, Z 0.000000)
   B->A: 3.497699 (X 3.497504, Y 0.036936, Z 0.000000)
 Oscillator strength (a.u.): 0.181408
 Transition angular momentum against gauge origin (a.u.):
   A->B:  (X 0.000000i, Y 0.000000i, Z 0.236843i)
   B->A:  (X 0.000000i, Y 0.000000i, Z 0.110112i)
 Norm of one-particle transition density matrix:
   A->B: 0.955003;   B->A: 0.955928
   ||gamma^AB||*||gamma^BA||: 0.912914

 ______________________________________________________________
 A(Ket)->B(Bra) transition SO matrices
 Analysing Sz ans S^2 of the pair of states...
 Ket state:  Computed S^2 = 0.750000 will be treated as 0.750000 Sz = -0.500000
 Bra state:  Computed S^2 = 0.750000 will be treated as 0.750000 Sz = -0.500000
 Clebsh-Gordan coefficient: <0.500,-0.500;1.000,0.000|0.500,-0.500> = -0.577
 _________________________________________________
 One-electron SO (cm-1)
 Reduced matrix elements:
 <S|| Hso(L-) ||S'> = (-0.000000,-0.000000)
 <S|| Hso(L0) ||S'> = (0.000000,-4.058809)
 <S|| Hso(L+) ||S'> = (-0.000000,0.000000)
 SOCC = 3.314003
 Actual matrix elements:
       |Sz=-0.50>           |Sz=0.50>
 <Sz=-0.50|(0.000000,2.343354)(-0.000000,0.000000)
 <Sz=0.50|(0.000000,0.000000)(0.000000,-2.343354)
 _________________________________________________
 Mean-field SO (cm-1)
 Reduced matrix elements:
 <S|| Hso(L-) ||S'> = (-0.000000,-0.000000)
 <S|| Hso(L0) ||S'> = (0.000000,-2.177323)
 <S|| Hso(L+) ||S'> = (-0.000000,0.000000)
 SOCC = 1.777777
 Actual matrix elements:
       |Sz=-0.50>           |Sz=0.50>
 <Sz=-0.50|(0.000000,1.257078)(-0.000000,0.000000)
 <Sz=0.50|(0.000000,0.000000)(0.000000,-1.257078)
 Singlet part of <S|| Hso(L0) ||S'> = (-0.000000,0.000000) (excluded from all matrix elements)
 L-/L+ Averaged reduced matrix elements:
 <S|| Hso(L-) ||S'> = (-0.000000,-0.000000)
 <S|| Hso(L+) ||S'> = (-0.000000,0.000000)
 ______________________________________________________________
 B(Ket)->A(Bra) transition SO matrices
 Analysing Sz ans S^2 of the pair of states...
 Ket state:  Computed S^2 = 0.750000 will be treated as 0.750000 Sz = -0.500000
 Bra state:  Computed S^2 = 0.750000 will be treated as 0.750000 Sz = -0.500000
 Clebsh-Gordan coefficient: <0.500,-0.500;1.000,0.000|0.500,-0.500> = -0.577
 _________________________________________________
 One-electron SO (cm-1)
 Reduced matrix elements:
 <S|| Hso(L-) ||S'> = (-0.000000,-0.000000)
 <S|| Hso(L0) ||S'> = (0.000000,4.229793)
 <S|| Hso(L+) ||S'> = (-0.000000,0.000000)
 SOCC = 3.453612
 Actual matrix elements:
       |Sz=-0.50>           |Sz=0.50>
 <Sz=-0.50|(0.000000,-2.442072)(-0.000000,0.000000)
 <Sz=0.50|(0.000000,0.000000)(0.000000,2.442072)
 _________________________________________________
 Mean-field SO (cm-1)
 Reduced matrix elements:
 <S|| Hso(L-) ||S'> = (0.000000,-0.000000)
 <S|| Hso(L0) ||S'> = (0.000000,2.262582)
 <S|| Hso(L+) ||S'> = (0.000000,0.000000)
 SOCC = 1.847390
 Actual matrix elements:
       |Sz=-0.50>           |Sz=0.50>
 <Sz=-0.50|(0.000000,-1.306302)(0.000000,0.000000)
 <Sz=0.50|(-0.000000,0.000000)(0.000000,1.306302)
 Singlet part of <S|| Hso(L0) ||S'> = (-0.000000,0.000000) (excluded from all matrix elements)
 L-/L+ Averaged reduced matrix elements:
 <S|| Hso(L-) ||S'> = (0.000000,-0.000000)
 <S|| Hso(L+) ||S'> = (0.000000,0.000000)
 ______________________________________________________________
   Arithmetically averaged transition SO matrices
   (The phases shown, Ket and Bra assingment are from A(Ket)->B(Bra))
 _________________________________________________
 One-electron SO (cm-1)
 SOCC = 3.383808
 Actual matrix elements:
       |Sz=-0.50>           |Sz=0.50>
 <Sz=-0.50|(0.000000,2.392713)(-0.000000,0.000000)
 <Sz=0.50|(0.000000,0.000000)(0.000000,-2.392713)
 _________________________________________________
 Mean-field SO (cm-1)
 SOCC = 1.812583
 Actual matrix elements:
       |Sz=-0.50>           |Sz=0.50>
 <Sz=-0.50|(0.000000,1.281690)(-0.000000,-0.000000)
 <Sz=0.50|(0.000000,-0.000000)(0.000000,-1.281690)
 ______________________________________________________________

 ------------------------------------------------------------------------------
 State A: eomip_ccsd/a: 1/A'
 State B: eomip_ccsd/a: 3/A'
 Energy GAP = 0.077138 a.u. = 2.099030 eV
 Transition dipole moment (a.u.):
   A->B: 0.188646 (X -0.135597, Y -0.131151, Z 0.000000)
   B->A: 0.188954 (X -0.137753, Y -0.129336, Z 0.000000)
 Oscillator strength (a.u.): 0.001833
 Transition angular momentum against gauge origin (a.u.):
   A->B:  (X 0.000000i, Y 0.000000i, Z 0.103530i)
   B->A:  (X 0.000000i, Y 0.000000i, Z -0.184497i)
 Norm of one-particle transition density matrix:
   A->B: 0.937001;   B->A: 0.933288
   ||gamma^AB||*||gamma^BA||: 0.874491

 ______________________________________________________________
 A(Ket)->B(Bra) transition SO matrices
 Analysing Sz ans S^2 of the pair of states...
 Ket state:  Computed S^2 = 0.750000 will be treated as 0.750000 Sz = -0.500000
 Bra state:  Computed S^2 = 0.750000 will be treated as 0.750000 Sz = -0.500000
 Clebsh-Gordan coefficient: <0.500,-0.500;1.000,0.000|0.500,-0.500> = -0.577
 _________________________________________________
 One-electron SO (cm-1)
 Reduced matrix elements:
 <S|| Hso(L-) ||S'> = (-0.000000,0.000000)
 <S|| Hso(L0) ||S'> = (0.000000,-9.975058)
 <S|| Hso(L+) ||S'> = (-0.000000,-0.000000)
 SOCC = 8.144601
 Actual matrix elements:
       |Sz=-0.50>           |Sz=0.50>
 <Sz=-0.50|(0.000000,5.759102)(-0.000000,-0.000000)
 <Sz=0.50|(0.000000,-0.000000)(0.000000,-5.759102)
 _________________________________________________
 Mean-field SO (cm-1)
 Reduced matrix elements:
 <S|| Hso(L-) ||S'> = (-0.000000,0.000000)
 <S|| Hso(L0) ||S'> = (0.000000,-5.170398)
 <S|| Hso(L+) ||S'> = (-0.000000,-0.000000)
 SOCC = 4.221612
 Actual matrix elements:
       |Sz=-0.50>           |Sz=0.50>
 <Sz=-0.50|(0.000000,2.985131)(-0.000000,-0.000000)
 <Sz=0.50|(0.000000,-0.000000)(0.000000,-2.985131)
 Singlet part of <S|| Hso(L0) ||S'> = (-0.000000,-0.000000) (excluded from all matrix elements)
 L-/L+ Averaged reduced matrix elements:
 <S|| Hso(L-) ||S'> = (-0.000000,0.000000)
 <S|| Hso(L+) ||S'> = (-0.000000,-0.000000)
 ______________________________________________________________
 B(Ket)->A(Bra) transition SO matrices
 Analysing Sz ans S^2 of the pair of states...
 Ket state:  Computed S^2 = 0.750000 will be treated as 0.750000 Sz = -0.500000
 Bra state:  Computed S^2 = 0.750000 will be treated as 0.750000 Sz = -0.500000
 Clebsh-Gordan coefficient: <0.500,-0.500;1.000,0.000|0.500,-0.500> = -0.577
 _________________________________________________
 One-electron SO (cm-1)
 Reduced matrix elements:
 <S|| Hso(L-) ||S'> = (0.000000,-0.000000)
 <S|| Hso(L0) ||S'> = (0.000000,9.980717)
 <S|| Hso(L+) ||S'> = (0.000000,0.000000)
 SOCC = 8.149221
 Actual matrix elements:
       |Sz=-0.50>           |Sz=0.50>
 <Sz=-0.50|(0.000000,-5.762370)(0.000000,0.000000)
 <Sz=0.50|(-0.000000,0.000000)(0.000000,5.762370)
 _________________________________________________
 Mean-field SO (cm-1)
 Reduced matrix elements:
 <S|| Hso(L-) ||S'> = (0.000000,-0.000000)
 <S|| Hso(L0) ||S'> = (0.000000,5.202792)
 <S|| Hso(L+) ||S'> = (0.000000,0.000000)
 SOCC = 4.248062
 Actual matrix elements:
       |Sz=-0.50>           |Sz=0.50>
 <Sz=-0.50|(0.000000,-3.003834)(0.000000,0.000000)
 <Sz=0.50|(-0.000000,0.000000)(0.000000,3.003834)
 Singlet part of <S|| Hso(L0) ||S'> = (-0.000000,-0.000000) (excluded from all matrix elements)
 L-/L+ Averaged reduced matrix elements:
 <S|| Hso(L-) ||S'> = (0.000000,-0.000000)
 <S|| Hso(L+) ||S'> = (0.000000,0.000000)
 ______________________________________________________________
   Arithmetically averaged transition SO matrices
   (The phases shown, Ket and Bra assingment are from A(Ket)->B(Bra))
 _________________________________________________
 One-electron SO (cm-1)
 SOCC = 8.146911
 Actual matrix elements:
       |Sz=-0.50>           |Sz=0.50>
 <Sz=-0.50|(0.000000,5.760736)(-0.000000,-0.000000)
 <Sz=0.50|(0.000000,-0.000000)(0.000000,-5.760736)
 _________________________________________________
 Mean-field SO (cm-1)
 SOCC = 4.234837
 Actual matrix elements:
       |Sz=-0.50>           |Sz=0.50>
 <Sz=-0.50|(0.000000,2.994482)(-0.000000,-0.000000)
 <Sz=0.50|(0.000000,-0.000000)(0.000000,-2.994482)
 ______________________________________________________________

 ------------------------------------------------------------------------------
 State A: eomip_ccsd/a: 1/A'
 State B: eomip_ccsd/a: 4/A'
 Energy GAP = 0.078708 a.u. = 2.141757 eV
 Transition dipole moment (a.u.):
   A->B: 0.576963 (X 0.499847, Y 0.288166, Z 0.000000)
   B->A: 0.569195 (X 0.492937, Y 0.284597, Z 0.000000)
 Oscillator strength (a.u.): 0.017232
 Transition angular momentum against gauge origin (a.u.):
   A->B:  (X 0.000000i, Y 0.000000i, Z 0.075379i)
   B->A:  (X 0.000000i, Y 0.000000i, Z -0.078027i)
 Norm of one-particle transition density matrix:
   A->B: 0.939181;   B->A: 0.936000
   ||gamma^AB||*||gamma^BA||: 0.879073

 ______________________________________________________________
 A(Ket)->B(Bra) transition SO matrices
 Analysing Sz ans S^2 of the pair of states...
 Ket state:  Computed S^2 = 0.750000 will be treated as 0.750000 Sz = -0.500000
 Bra state:  Computed S^2 = 0.750000 will be treated as 0.750000 Sz = -0.500000
 Clebsh-Gordan coefficient: <0.500,-0.500;1.000,0.000|0.500,-0.500> = -0.577
 _________________________________________________
 One-electron SO (cm-1)
 Reduced matrix elements:
 <S|| Hso(L-) ||S'> = (-0.000000,0.000000)
 <S|| Hso(L0) ||S'> = (0.000000,-9.292151)
 <S|| Hso(L+) ||S'> = (-0.000000,-0.000000)
 SOCC = 7.587009
 Actual matrix elements:
       |Sz=-0.50>           |Sz=0.50>
 <Sz=-0.50|(0.000000,5.364826)(-0.000000,-0.000000)
 <Sz=0.50|(0.000000,-0.000000)(0.000000,-5.364826)
 _________________________________________________
 Mean-field SO (cm-1)
 Reduced matrix elements:
 <S|| Hso(L-) ||S'> = (-0.000000,0.000000)
 <S|| Hso(L0) ||S'> = (0.000000,-4.965991)
 <S|| Hso(L+) ||S'> = (-0.000000,-0.000000)
 SOCC = 4.054715
 Actual matrix elements:
       |Sz=-0.50>           |Sz=0.50>
 <Sz=-0.50|(0.000000,2.867116)(-0.000000,-0.000000)
 <Sz=0.50|(0.000000,-0.000000)(0.000000,-2.867116)
 Singlet part of <S|| Hso(L0) ||S'> = (-0.000000,-0.000000) (excluded from all matrix elements)
 L-/L+ Averaged reduced matrix elements:
 <S|| Hso(L-) ||S'> = (-0.000000,0.000000)
 <S|| Hso(L+) ||S'> = (-0.000000,-0.000000)
 ______________________________________________________________
 B(Ket)->A(Bra) transition SO matrices
 Analysing Sz ans S^2 of the pair of states...
 Ket state:  Computed S^2 = 0.750000 will be treated as 0.750000 Sz = -0.500000
 Bra state:  Computed S^2 = 0.750000 will be treated as 0.750000 Sz = -0.500000
 Clebsh-Gordan coefficient: <0.500,-0.500;1.000,0.000|0.500,-0.500> = -0.577
 _________________________________________________
 One-electron SO (cm-1)
 Reduced matrix elements:
 <S|| Hso(L-) ||S'> = (0.000000,-0.000000)
 <S|| Hso(L0) ||S'> = (0.000000,9.359518)
 <S|| Hso(L+) ||S'> = (0.000000,0.000000)
 SOCC = 7.642014
 Actual matrix elements:
       |Sz=-0.50>           |Sz=0.50>
 <Sz=-0.50|(0.000000,-5.403720)(0.000000,0.000000)
 <Sz=0.50|(-0.000000,0.000000)(0.000000,5.403720)
 _________________________________________________
 Mean-field SO (cm-1)
 Reduced matrix elements:
 <S|| Hso(L-) ||S'> = (0.000000,-0.000000)
 <S|| Hso(L0) ||S'> = (0.000000,5.007610)
 <S|| Hso(L+) ||S'> = (0.000000,0.000000)
 SOCC = 4.088696
 Actual matrix elements:
       |Sz=-0.50>           |Sz=0.50>
 <Sz=-0.50|(0.000000,-2.891145)(0.000000,0.000000)
 <Sz=0.50|(-0.000000,0.000000)(0.000000,2.891145)
 Singlet part of <S|| Hso(L0) ||S'> = (-0.000000,-0.000000) (excluded from all matrix elements)
 L-/L+ Averaged reduced matrix elements:
 <S|| Hso(L-) ||S'> = (0.000000,-0.000000)
 <S|| Hso(L+) ||S'> = (0.000000,0.000000)
 ______________________________________________________________
   Arithmetically averaged transition SO matrices
   (The phases shown, Ket and Bra assingment are from A(Ket)->B(Bra))
 _________________________________________________
 One-electron SO (cm-1)
 SOCC = 7.614512
 Actual matrix elements:
       |Sz=-0.50>           |Sz=0.50>
 <Sz=-0.50|(0.000000,5.384273)(-0.000000,-0.000000)
 <Sz=0.50|(0.000000,-0.000000)(0.000000,-5.384273)
 _________________________________________________
 Mean-field SO (cm-1)
 SOCC = 4.071705
 Actual matrix elements:
       |Sz=-0.50>           |Sz=0.50>
 <Sz=-0.50|(0.000000,2.879130)(-0.000000,-0.000000)
 <Sz=0.50|(0.000000,-0.000000)(0.000000,-2.879130)
 ______________________________________________________________

 ------------------------------------------------------------------------------
 State A: eomip_ccsd/a: 1/A'
 State B: eomip_ccsd/a: 5/A'
 Energy GAP = 0.100146 a.u. = 2.725123 eV
 Transition dipole moment (a.u.):
   A->B: 0.247195 (X -0.169856, Y -0.179595, Z 0.000000)
   B->A: 0.241438 (X -0.164508, Y -0.176719, Z 0.000000)
 Oscillator strength (a.u.): 0.003985
 Transition angular momentum against gauge origin (a.u.):
   A->B:  (X 0.000000i, Y 0.000000i, Z -0.039298i)
   B->A:  (X 0.000000i, Y 0.000000i, Z 0.016563i)
 Norm of one-particle transition density matrix:
   A->B: 0.938577;   B->A: 0.934093
   ||gamma^AB||*||gamma^BA||: 0.876718

 ______________________________________________________________
 A(Ket)->B(Bra) transition SO matrices
 Analysing Sz ans S^2 of the pair of states...
 Ket state:  Computed S^2 = 0.750000 will be treated as 0.750000 Sz = -0.500000
 Bra state:  Computed S^2 = 0.750000 will be treated as 0.750000 Sz = -0.500000
 Clebsh-Gordan coefficient: <0.500,-0.500;1.000,0.000|0.500,-0.500> = -0.577
 _________________________________________________
 One-electron SO (cm-1)
 Reduced matrix elements:
 <S|| Hso(L-) ||S'> = (0.000000,0.000000)
 <S|| Hso(L0) ||S'> = (0.000000,2.338919)
 <S|| Hso(L+) ||S'> = (0.000000,-0.000000)
 SOCC = 1.909720
 Actual matrix elements:
       |Sz=-0.50>           |Sz=0.50>
 <Sz=-0.50|(0.000000,-1.350376)(0.000000,-0.000000)
 <Sz=0.50|(-0.000000,-0.000000)(0.000000,1.350376)
 _________________________________________________
 Mean-field SO (cm-1)
 Reduced matrix elements:
 <S|| Hso(L-) ||S'> = (0.000000,0.000000)
 <S|| Hso(L0) ||S'> = (0.000000,1.285277)
 <S|| Hso(L+) ||S'> = (0.000000,-0.000000)
 SOCC = 1.049424
 Actual matrix elements:
       |Sz=-0.50>           |Sz=0.50>
 <Sz=-0.50|(0.000000,-0.742055)(0.000000,-0.000000)
 <Sz=0.50|(-0.000000,-0.000000)(0.000000,0.742055)
 Singlet part of <S|| Hso(L0) ||S'> = (-0.000000,0.000000) (excluded from all matrix elements)
 L-/L+ Averaged reduced matrix elements:
 <S|| Hso(L-) ||S'> = (0.000000,0.000000)
 <S|| Hso(L+) ||S'> = (0.000000,-0.000000)
 ______________________________________________________________
 B(Ket)->A(Bra) transition SO matrices
 Analysing Sz ans S^2 of the pair of states...
 Ket state:  Computed S^2 = 0.750000 will be treated as 0.750000 Sz = -0.500000
 Bra state:  Computed S^2 = 0.750000 will be treated as 0.750000 Sz = -0.500000
 Clebsh-Gordan coefficient: <0.500,-0.500;1.000,0.000|0.500,-0.500> = -0.577
 _________________________________________________
 One-electron SO (cm-1)
 Reduced matrix elements:
 <S|| Hso(L-) ||S'> = (-0.000000,-0.000000)
 <S|| Hso(L0) ||S'> = (0.000000,-2.333884)
 <S|| Hso(L+) ||S'> = (-0.000000,0.000000)
 SOCC = 1.905608
 Actual matrix elements:
       |Sz=-0.50>           |Sz=0.50>
 <Sz=-0.50|(0.000000,1.347468)(-0.000000,0.000000)
 <Sz=0.50|(0.000000,0.000000)(0.000000,-1.347468)
 _________________________________________________
 Mean-field SO (cm-1)
 Reduced matrix elements:
 <S|| Hso(L-) ||S'> = (-0.000000,-0.000000)
 <S|| Hso(L0) ||S'> = (0.000000,-1.272565)
 <S|| Hso(L+) ||S'> = (-0.000000,0.000000)
 SOCC = 1.039045
 Actual matrix elements:
       |Sz=-0.50>           |Sz=0.50>
 <Sz=-0.50|(0.000000,0.734716)(-0.000000,0.000000)
 <Sz=0.50|(0.000000,0.000000)(0.000000,-0.734716)
 Singlet part of <S|| Hso(L0) ||S'> = (-0.000000,0.000000) (excluded from all matrix elements)
 L-/L+ Averaged reduced matrix elements:
 <S|| Hso(L-) ||S'> = (-0.000000,-0.000000)
 <S|| Hso(L+) ||S'> = (-0.000000,0.000000)
 ______________________________________________________________
   Arithmetically averaged transition SO matrices
   (The phases shown, Ket and Bra assingment are from A(Ket)->B(Bra))
 _________________________________________________
 One-electron SO (cm-1)
 SOCC = 1.907664
 Actual matrix elements:
       |Sz=-0.50>           |Sz=0.50>
 <Sz=-0.50|(0.000000,-1.348922)(0.000000,-0.000000)
 <Sz=0.50|(-0.000000,-0.000000)(0.000000,1.348922)
 _________________________________________________
 Mean-field SO (cm-1)
 SOCC = 1.044234
 Actual matrix elements:
       |Sz=-0.50>           |Sz=0.50>
 <Sz=-0.50|(0.000000,-0.738385)(0.000000,-0.000000)
 <Sz=0.50|(-0.000000,-0.000000)(0.000000,0.738385)
 ______________________________________________________________

 ------------------------------------------------------------------------------
 State A: eomip_ccsd/a: 1/A'
 State B: eomip_ccsd/a: 6/A'
 Energy GAP = 0.110041 a.u. = 2.994363 eV
 Transition dipole moment (a.u.):
   A->B: 0.591806 (X 0.586839, Y 0.076517, Z 0.000000)
   B->A: 0.589729 (X 0.584745, Y 0.076505, Z 0.000000)
 Oscillator strength (a.u.): 0.025603
 Transition angular momentum against gauge origin (a.u.):
   A->B:  (X 0.000000i, Y 0.000000i, Z 0.479055i)
   B->A:  (X 0.000000i, Y 0.000000i, Z -0.500897i)
 Norm of one-particle transition density matrix:
   A->B: 0.935091;   B->A: 0.930664
   ||gamma^AB||*||gamma^BA||: 0.870256

 ______________________________________________________________
 A(Ket)->B(Bra) transition SO matrices
 Analysing Sz ans S^2 of the pair of states...
 Ket state:  Computed S^2 = 0.750000 will be treated as 0.750000 Sz = -0.500000
 Bra state:  Computed S^2 = 0.750000 will be treated as 0.750000 Sz = -0.500000
 Clebsh-Gordan coefficient: <0.500,-0.500;1.000,0.000|0.500,-0.500> = -0.577
 _________________________________________________
 One-electron SO (cm-1)
 Reduced matrix elements:
 <S|| Hso(L-) ||S'> = (0.000000,-0.000000)
 <S|| Hso(L0) ||S'> = (0.000000,-28.196499)
 <S|| Hso(L+) ||S'> = (0.000000,0.000000)
 SOCC = 23.022345
 Actual matrix elements:
       |Sz=-0.50>           |Sz=0.50>
 <Sz=-0.50|(0.000000,16.279256)(0.000000,0.000000)
 <Sz=0.50|(-0.000000,0.000000)(0.000000,-16.279256)
 _________________________________________________
 Mean-field SO (cm-1)
 Reduced matrix elements:
 <S|| Hso(L-) ||S'> = (0.000000,0.000000)
 <S|| Hso(L0) ||S'> = (0.000000,-14.645225)
 <S|| Hso(L+) ||S'> = (0.000000,-0.000000)
 SOCC = 11.957776
 Actual matrix elements:
       |Sz=-0.50>           |Sz=0.50>
 <Sz=-0.50|(0.000000,8.455425)(0.000000,-0.000000)
 <Sz=0.50|(-0.000000,-0.000000)(0.000000,-8.455425)
 Singlet part of <S|| Hso(L0) ||S'> = (-0.000000,-0.000000) (excluded from all matrix elements)
 L-/L+ Averaged reduced matrix elements:
 <S|| Hso(L-) ||S'> = (0.000000,0.000000)
 <S|| Hso(L+) ||S'> = (0.000000,-0.000000)
 ______________________________________________________________
 B(Ket)->A(Bra) transition SO matrices
 Analysing Sz ans S^2 of the pair of states...
 Ket state:  Computed S^2 = 0.750000 will be treated as 0.750000 Sz = -0.500000
 Bra state:  Computed S^2 = 0.750000 will be treated as 0.750000 Sz = -0.500000
 Clebsh-Gordan coefficient: <0.500,-0.500;1.000,0.000|0.500,-0.500> = -0.577
 _________________________________________________
 One-electron SO (cm-1)
 Reduced matrix elements:
 <S|| Hso(L-) ||S'> = (-0.000000,0.000000)
 <S|| Hso(L0) ||S'> = (0.000000,28.137977)
 <S|| Hso(L+) ||S'> = (-0.000000,-0.000000)
 SOCC = 22.974562
 Actual matrix elements:
       |Sz=-0.50>           |Sz=0.50>
 <Sz=-0.50|(0.000000,-16.245469)(-0.000000,-0.000000)
 <Sz=0.50|(0.000000,-0.000000)(0.000000,16.245469)
 _________________________________________________
 Mean-field SO (cm-1)
 Reduced matrix elements:
 <S|| Hso(L-) ||S'> = (-0.000000,0.000000)
 <S|| Hso(L0) ||S'> = (0.000000,14.609863)
 <S|| Hso(L+) ||S'> = (-0.000000,-0.000000)
 SOCC = 11.928903
 Actual matrix elements:
       |Sz=-0.50>           |Sz=0.50>
 <Sz=-0.50|(0.000000,-8.435008)(-0.000000,-0.000000)
 <Sz=0.50|(0.000000,-0.000000)(0.000000,8.435008)
 Singlet part of <S|| Hso(L0) ||S'> = (-0.000000,-0.000000) (excluded from all matrix elements)
 L-/L+ Averaged reduced matrix elements:
 <S|| Hso(L-) ||S'> = (-0.000000,0.000000)
 <S|| Hso(L+) ||S'> = (-0.000000,-0.000000)
 ______________________________________________________________
   Arithmetically averaged transition SO matrices
   (The phases shown, Ket and Bra assingment are from A(Ket)->B(Bra))
 _________________________________________________
 One-electron SO (cm-1)
 SOCC = 22.998453
 Actual matrix elements:
       |Sz=-0.50>           |Sz=0.50>
 <Sz=-0.50|(0.000000,16.262362)(0.000000,0.000000)
 <Sz=0.50|(-0.000000,0.000000)(0.000000,-16.262362)
 _________________________________________________
 Mean-field SO (cm-1)
 SOCC = 11.943340
 Actual matrix elements:
       |Sz=-0.50>           |Sz=0.50>
 <Sz=-0.50|(0.000000,8.445217)(0.000000,-0.000000)
 <Sz=0.50|(-0.000000,-0.000000)(0.000000,-8.445217)
 ______________________________________________________________

 ------------------------------------------------------------------------------
 State A: eomip_ccsd/a: 1/A'
 State B: eomip_ccsd/a: 7/A'
 Energy GAP = 0.120143 a.u. = 3.269264 eV
 Transition dipole moment (a.u.):
   A->B: 0.300720 (X 0.098666, Y 0.284073, Z 0.000000)
   B->A: 0.291292 (X 0.094223, Y 0.275632, Z 0.000000)
 Oscillator strength (a.u.): 0.007016
 Transition angular momentum against gauge origin (a.u.):
   A->B:  (X 0.000000i, Y 0.000000i, Z 0.020884i)
   B->A:  (X 0.000000i, Y 0.000000i, Z 0.049192i)
 Norm of one-particle transition density matrix:
   A->B: 0.937770;   B->A: 0.934324
   ||gamma^AB||*||gamma^BA||: 0.876181

 ______________________________________________________________
 A(Ket)->B(Bra) transition SO matrices
 Analysing Sz ans S^2 of the pair of states...
 Ket state:  Computed S^2 = 0.750000 will be treated as 0.750000 Sz = -0.500000
 Bra state:  Computed S^2 = 0.750000 will be treated as 0.750000 Sz = -0.500000
 Clebsh-Gordan coefficient: <0.500,-0.500;1.000,0.000|0.500,-0.500> = -0.577
 _________________________________________________
 One-electron SO (cm-1)
 Reduced matrix elements:
 <S|| Hso(L-) ||S'> = (-0.000000,-0.000000)
 <S|| Hso(L0) ||S'> = (0.000000,5.573609)
 <S|| Hso(L+) ||S'> = (-0.000000,0.000000)
 SOCC = 4.550833
 Actual matrix elements:
       |Sz=-0.50>           |Sz=0.50>
 <Sz=-0.50|(0.000000,-3.217925)(-0.000000,0.000000)
 <Sz=0.50|(0.000000,0.000000)(0.000000,3.217925)
 _________________________________________________
 Mean-field SO (cm-1)
 Reduced matrix elements:
[...]
   B->A:  (X 0.000000i, Y 0.000000i, Z 0.133233i)
 Norm of one-particle transition density matrix:
   A->B: 0.936569;   B->A: 0.936479
   ||gamma^AB||*||gamma^BA||: 0.877078

 ______________________________________________________________
 A(Ket)->B(Bra) transition SO matrices
 Analysing Sz ans S^2 of the pair of states...
 Ket state:  Computed S^2 = 0.750000 will be treated as 0.750000 Sz = -0.500000
 Bra state:  Computed S^2 = 0.750000 will be treated as 0.750000 Sz = -0.500000
 Clebsh-Gordan coefficient: <0.500,-0.500;1.000,0.000|0.500,-0.500> = -0.577
 _________________________________________________
 One-electron SO (cm-1)
 Reduced matrix elements:
 <S|| Hso(L-) ||S'> = (-0.000000,0.000000)
 <S|| Hso(L0) ||S'> = (0.000000,0.707750)
 <S|| Hso(L+) ||S'> = (-0.000000,-0.000000)
 SOCC = 0.577876
 Actual matrix elements:
       |Sz=-0.50>           |Sz=0.50>
 <Sz=-0.50|(0.000000,-0.408620)(-0.000000,-0.000000)
 <Sz=0.50|(0.000000,-0.000000)(0.000000,0.408620)
 _________________________________________________
 Mean-field SO (cm-1)
 Reduced matrix elements:
 <S|| Hso(L-) ||S'> = (-0.000000,0.000000)
 <S|| Hso(L0) ||S'> = (0.000000,0.388173)
 <S|| Hso(L+) ||S'> = (-0.000000,-0.000000)
 SOCC = 0.316942
 Actual matrix elements:
       |Sz=-0.50>           |Sz=0.50>
 <Sz=-0.50|(0.000000,-0.224112)(-0.000000,-0.000000)
 <Sz=0.50|(0.000000,-0.000000)(0.000000,0.224112)
 Singlet part of <S|| Hso(L0) ||S'> = (-0.000000,0.000000) (excluded from all matrix elements)
 L-/L+ Averaged reduced matrix elements:
 <S|| Hso(L-) ||S'> = (-0.000000,0.000000)
 <S|| Hso(L+) ||S'> = (-0.000000,-0.000000)
 ______________________________________________________________
 B(Ket)->A(Bra) transition SO matrices
 Analysing Sz ans S^2 of the pair of states...
 Ket state:  Computed S^2 = 0.750000 will be treated as 0.750000 Sz = -0.500000
 Bra state:  Computed S^2 = 0.750000 will be treated as 0.750000 Sz = -0.500000
 Clebsh-Gordan coefficient: <0.500,-0.500;1.000,0.000|0.500,-0.500> = -0.577
 _________________________________________________
 One-electron SO (cm-1)
 Reduced matrix elements:
 <S|| Hso(L-) ||S'> = (-0.000000,-0.000000)
 <S|| Hso(L0) ||S'> = (0.000000,-0.729612)
 <S|| Hso(L+) ||S'> = (-0.000000,0.000000)
 SOCC = 0.595726
 Actual matrix elements:
       |Sz=-0.50>           |Sz=0.50>
 <Sz=-0.50|(0.000000,0.421242)(-0.000000,0.000000)
 <Sz=0.50|(0.000000,0.000000)(0.000000,-0.421242)
 _________________________________________________
 Mean-field SO (cm-1)
 Reduced matrix elements:
 <S|| Hso(L-) ||S'> = (-0.000000,-0.000000)
 <S|| Hso(L0) ||S'> = (0.000000,-0.393881)
 <S|| Hso(L+) ||S'> = (-0.000000,0.000000)
 SOCC = 0.321602
 Actual matrix elements:
       |Sz=-0.50>           |Sz=0.50>
 <Sz=-0.50|(0.000000,0.227407)(-0.000000,0.000000)
 <Sz=0.50|(0.000000,0.000000)(0.000000,-0.227407)
 Singlet part of <S|| Hso(L0) ||S'> = (-0.000000,-0.000000) (excluded from all matrix elements)
 L-/L+ Averaged reduced matrix elements:
 <S|| Hso(L-) ||S'> = (-0.000000,-0.000000)
 <S|| Hso(L+) ||S'> = (-0.000000,0.000000)
 ______________________________________________________________
   Arithmetically averaged transition SO matrices
   (The phases shown, Ket and Bra assingment are from A(Ket)->B(Bra))
 _________________________________________________
 One-electron SO (cm-1)
 SOCC = 0.586801
 Actual matrix elements:
       |Sz=-0.50>           |Sz=0.50>
 <Sz=-0.50|(0.000000,-0.414931)(-0.000000,-0.000000)
 <Sz=0.50|(0.000000,-0.000000)(0.000000,0.414931)
 _________________________________________________
 Mean-field SO (cm-1)
 SOCC = 0.319272
 Actual matrix elements:
       |Sz=-0.50>           |Sz=0.50>
 <Sz=-0.50|(0.000000,-0.225759)(-0.000000,-0.000000)
 <Sz=0.50|(0.000000,-0.000000)(0.000000,0.225759)
 ______________________________________________________________


 All requested transition properties have been computed


 Transition Properties  CPU 86913.64 s  wall 5559.23 s
 Total ccman2 time:   CPU 115845.76 s  wall 7576.89 s


 --------------------------------------------------------------
             Orbital Energies (a.u.) and Symmetries
 --------------------------------------------------------------

 Alpha MOs, Restricted
 -- Occupied --                  
-11.232 -11.232 -11.232 -11.232 -11.228 -11.228 -11.228 -11.227
  1 A'    1 A"    2 A'    2 A"    3 A'    3 A"    4 A'    5 A'                 
-11.227 -11.227 -11.226 -11.226 -11.225 -11.225 -11.223 -11.221
  6 A'    4 A"    5 A"    6 A"    7 A'    7 A"    8 A'    9 A'                 
-11.214  -1.192  -1.166  -1.111  -1.003  -0.972  -0.966  -0.948
 10 A'   11 A'   12 A'   13 A'    8 A"   14 A'    9 A"   15 A'                 
 -0.942  -0.934  -0.913  -0.784  -0.759  -0.754  -0.744  -0.718
 16 A'   17 A'   10 A"   18 A'   11 A"   19 A'   20 A'   12 A"                 
 -0.708  -0.694  -0.689  -0.685  -0.650  -0.639  -0.634  -0.576
 13 A"   14 A"   21 A'   22 A'   23 A'   24 A'   25 A'   26 A'                 
 -0.552  -0.532  -0.528  -0.520  -0.517  -0.511  -0.497  -0.487
 27 A'   28 A'   15 A"   16 A"   29 A'   30 A'   17 A"   31 A'                 
 -0.485  -0.477  -0.466  -0.460  -0.451  -0.446  -0.437  -0.425
 18 A"   19 A"   32 A'   33 A'   20 A"   34 A'   21 A"   22 A"                 
 -0.421  -0.418  -0.390  -0.328  -0.307
 35 A'   36 A'   23 A"   37 A'   38 A'                                         
 -- Virtual --                   
  0.165   0.172   0.177   0.198   0.209   0.212   0.222   0.233
 24 A"   25 A"   39 A'   40 A'   41 A'   26 A"   42 A'   27 A"                 
  0.233   0.238   0.239   0.242   0.244   0.254   0.261   0.264
 43 A'   28 A"   44 A'   45 A'   46 A'   29 A"   30 A"   47 A'                 
  0.278   0.290   0.302   0.321   0.331   0.335   0.337   0.341
 48 A'   31 A"   49 A'   32 A"   50 A'   33 A"   51 A'   52 A'                 
  0.349   0.365   0.377   0.378   0.390   0.394   0.414   0.417
 53 A'   34 A"   54 A'   35 A"   55 A'   36 A"   56 A'   37 A"                 
  0.418   0.418   0.424   0.458   0.467   0.474   0.481   0.481
 57 A'   38 A"   58 A'   59 A'   39 A"   40 A"   60 A'   41 A"                 
  0.494   0.526   0.562   0.576   0.591   0.600   0.620   0.626
 42 A"   43 A"   44 A"   45 A"   61 A'   62 A'   63 A'   64 A'                 
  0.637   0.648   0.662   0.675   0.710   0.718   0.724   0.732
 65 A'   66 A'   67 A'   68 A'   69 A'   46 A"   70 A'   47 A"                 
  0.748   0.752   0.758   0.761   0.770   0.786   0.813   0.815
 71 A'   48 A"   72 A'   49 A"   73 A'   50 A"   74 A'   51 A"                 
  0.816   0.816   0.829   0.832   0.833   0.833   0.838   0.846
 75 A'   52 A"   53 A"   76 A'   54 A"   77 A'   55 A"   56 A"                 
  0.850   0.855   0.862   0.866   0.871   0.877   0.880   0.890
 78 A'   79 A'   80 A'   81 A'   57 A"   82 A'   58 A"   83 A'                 
  0.895   0.898   0.904   0.907   0.912   0.917   0.920   0.921
 59 A"   84 A'   60 A"   85 A'   61 A"   86 A'   62 A"   87 A'                 
  0.931   0.932   0.949   0.961   0.968   0.978   0.981   0.993
 63 A"   88 A'   64 A"   89 A'   90 A'   65 A"   66 A"   67 A"                 
  0.997   1.008   1.022   1.025   1.054   1.058   1.067   1.069
 91 A'   68 A"   92 A'   93 A'   69 A"   94 A'   70 A"   95 A'                 
  1.083   1.096   1.125   1.141   1.152   1.157   1.165   1.177
 96 A'   97 A'   98 A'   99 A'   71 A"   72 A"  100 A'   73 A"                 
  1.200   1.216   1.225   1.239   1.259   1.291   1.302   1.339
 74 A"  101 A'  102 A'   75 A"  103 A'   76 A"  104 A'  105 A'                 
  1.352   1.359   1.360   1.393   1.394   1.413   1.420   1.437
 77 A"   78 A"  106 A'  107 A'   79 A"  108 A'   80 A"  109 A'                 
  1.478   1.483   1.502   1.508   1.553   1.590   1.599   1.601
110 A'   81 A"  111 A'  112 A'   82 A"   83 A"  113 A'  114 A'                 
  1.609   1.616   1.640   1.646   1.675   1.678   1.688   1.705
 84 A"  115 A'   85 A"  116 A'  117 A'   86 A"   87 A"  118 A'                 
  1.717   1.736   1.758   1.760   1.772   1.780   1.784   1.787
119 A'  120 A'  121 A'  122 A'  123 A'  124 A'   88 A"  125 A'                 
  1.795   1.796   1.817   1.819   1.828   1.830   1.844   1.845
 89 A"  126 A'   90 A"   91 A"   92 A"  127 A'   93 A"  128 A'                 
  1.862   1.870   1.878   1.888   1.891   1.902   1.905   1.922
 94 A"  129 A'  130 A'   95 A"   96 A"  131 A'   97 A"  132 A'                 
  1.930   1.937   1.939   1.955   1.962   1.973   1.984   1.987
 98 A"  133 A'   99 A"  134 A'  135 A'  100 A"  136 A'  101 A"                 
  1.999   2.012   2.017   2.038   2.040   2.048   2.050   2.051
137 A'  102 A"  138 A'  139 A'  103 A"  104 A"  105 A"  140 A'                 
  2.057   2.064   2.066   2.082   2.085   2.098   2.102   2.122
141 A'  106 A"  107 A"  142 A'  143 A'  144 A'  145 A'  108 A"                 
  2.123   2.150   2.152   2.164   2.168   2.178   2.180   2.189
146 A'  147 A'  109 A"  148 A'  110 A"  111 A"  112 A"  113 A"                 
  2.189   2.192   2.201   2.222   2.226   2.236   2.243   2.259
149 A'  114 A"  150 A'  151 A'  152 A'  115 A"  153 A'  116 A"                 
  2.267   2.286   2.292   2.292   2.298   2.323   2.334   2.338
154 A'  117 A"  118 A"  155 A'  119 A"  156 A'  120 A"  121 A"                 
  2.365   2.365   2.382   2.397   2.404   2.407   2.431   2.433
157 A'  122 A"  158 A'  123 A"  159 A'  124 A"  160 A'  125 A"                 
  2.441   2.450   2.460   2.466   2.474   2.476   2.484   2.509
161 A'  126 A"  162 A'  163 A'  127 A"  164 A'  128 A"  165 A'                 
  2.510   2.519   2.541   2.577   2.583   2.591   2.607   2.617
129 A"  166 A'  130 A"  167 A'  168 A'  131 A"  169 A'  170 A'                 
  2.621   2.624   2.643   2.653   2.656   2.666   2.685   2.687
132 A"  133 A"  171 A'  172 A'  134 A"  135 A"  173 A'  136 A"                 
  2.695   2.731   2.735   2.767   2.797   2.813   2.827   2.840
174 A'  137 A"  138 A"  139 A"  140 A"  175 A'  176 A'  141 A"                 
  2.851   2.875   2.887   2.908   2.915   2.934   2.935   2.982
177 A'  178 A'  142 A"  179 A'  180 A'  143 A"  144 A"  181 A'                 
  3.032   3.038   3.058   3.069   3.108   3.110   3.127   3.151
145 A"  182 A'  146 A"  183 A'  147 A"  184 A'  185 A'  186 A'                 
  3.155   3.166   3.191   3.526   3.528
148 A"  187 A'  149 A"  150 A"  151 A"                                         

 Beta MOs, Restricted
 -- Occupied --                  
-11.232 -11.232 -11.232 -11.232 -11.228 -11.228 -11.228 -11.227
  1 A'    1 A"    2 A'    2 A"    3 A'    3 A"    4 A'    5 A'                 
-11.227 -11.227 -11.226 -11.226 -11.225 -11.225 -11.223 -11.221
  6 A'    4 A"    5 A"    6 A"    7 A'    7 A"    8 A'    9 A'                 
-11.214  -1.192  -1.166  -1.111  -1.003  -0.972  -0.966  -0.948
 10 A'   11 A'   12 A'   13 A'    8 A"   14 A'    9 A"   15 A'                 
 -0.942  -0.934  -0.913  -0.784  -0.759  -0.754  -0.744  -0.718
 16 A'   17 A'   10 A"   18 A'   11 A"   19 A'   20 A'   12 A"                 
 -0.708  -0.694  -0.689  -0.685  -0.650  -0.639  -0.634  -0.576
 13 A"   14 A"   21 A'   22 A'   23 A'   24 A'   25 A'   26 A'                 
 -0.552  -0.532  -0.528  -0.520  -0.517  -0.511  -0.497  -0.487
 27 A'   28 A'   15 A"   16 A"   29 A'   30 A'   17 A"   31 A'                 
 -0.485  -0.477  -0.466  -0.460  -0.451  -0.446  -0.437  -0.425
 18 A"   19 A"   32 A'   33 A'   20 A"   34 A'   21 A"   22 A"                 
 -0.421  -0.418  -0.390  -0.328  -0.307
 35 A'   36 A'   23 A"   37 A'   38 A'                                         
 -- Virtual --                   
  0.165   0.172   0.177   0.198   0.209   0.212   0.222   0.233
 24 A"   25 A"   39 A'   40 A'   41 A'   26 A"   42 A'   27 A"                 
  0.233   0.238   0.239   0.242   0.244   0.254   0.261   0.264
 43 A'   28 A"   44 A'   45 A'   46 A'   29 A"   30 A"   47 A'                 
  0.278   0.290   0.302   0.321   0.331   0.335   0.337   0.341
 48 A'   31 A"   49 A'   32 A"   50 A'   33 A"   51 A'   52 A'                 
  0.349   0.365   0.377   0.378   0.390   0.394   0.414   0.417
 53 A'   34 A"   54 A'   35 A"   55 A'   36 A"   56 A'   37 A"                 
  0.418   0.418   0.424   0.458   0.467   0.474   0.481   0.481
 57 A'   38 A"   58 A'   59 A'   39 A"   40 A"   60 A'   41 A"                 
  0.494   0.526   0.562   0.576   0.591   0.600   0.620   0.626
 42 A"   43 A"   44 A"   45 A"   61 A'   62 A'   63 A'   64 A'                 
  0.637   0.648   0.662   0.675   0.710   0.718   0.724   0.732
 65 A'   66 A'   67 A'   68 A'   69 A'   46 A"   70 A'   47 A"                 
  0.748   0.752   0.758   0.761   0.770   0.786   0.813   0.815
 71 A'   48 A"   72 A'   49 A"   73 A'   50 A"   74 A'   51 A"                 
  0.816   0.816   0.829   0.832   0.833   0.833   0.838   0.846
 75 A'   52 A"   53 A"   76 A'   54 A"   77 A'   55 A"   56 A"                 
  0.850   0.855   0.862   0.866   0.871   0.877   0.880   0.890
 78 A'   79 A'   80 A'   81 A'   57 A"   82 A'   58 A"   83 A'                 
  0.895   0.898   0.904   0.907   0.912   0.917   0.920   0.921
 59 A"   84 A'   60 A"   85 A'   61 A"   86 A'   62 A"   87 A'                 
  0.931   0.932   0.949   0.961   0.968   0.978   0.981   0.993
 63 A"   88 A'   64 A"   89 A'   90 A'   65 A"   66 A"   67 A"                 
  0.997   1.008   1.022   1.025   1.054   1.058   1.067   1.069
 91 A'   68 A"   92 A'   93 A'   69 A"   94 A'   70 A"   95 A'                 
  1.083   1.096   1.125   1.141   1.152   1.157   1.165   1.177
 96 A'   97 A'   98 A'   99 A'   71 A"   72 A"  100 A'   73 A"                 
  1.200   1.216   1.225   1.239   1.259   1.291   1.302   1.339
 74 A"  101 A'  102 A'   75 A"  103 A'   76 A"  104 A'  105 A'                 
  1.352   1.359   1.360   1.393   1.394   1.413   1.420   1.437
 77 A"   78 A"  106 A'  107 A'   79 A"  108 A'   80 A"  109 A'                 
  1.478   1.483   1.502   1.508   1.553   1.590   1.599   1.601
110 A'   81 A"  111 A'  112 A'   82 A"   83 A"  113 A'  114 A'                 
  1.609   1.616   1.640   1.646   1.675   1.678   1.688   1.705
 84 A"  115 A'   85 A"  116 A'  117 A'   86 A"   87 A"  118 A'                 
  1.717   1.736   1.758   1.760   1.772   1.780   1.784   1.787
119 A'  120 A'  121 A'  122 A'  123 A'  124 A'   88 A"  125 A'                 
  1.795   1.796   1.817   1.819   1.828   1.830   1.844   1.845
 89 A"  126 A'   90 A"   91 A"   92 A"  127 A'   93 A"  128 A'                 
  1.862   1.870   1.878   1.888   1.891   1.902   1.905   1.922
 94 A"  129 A'  130 A'   95 A"   96 A"  131 A'   97 A"  132 A'                 
  1.930   1.937   1.939   1.955   1.962   1.973   1.984   1.987
 98 A"  133 A'   99 A"  134 A'  135 A'  100 A"  136 A'  101 A"                 
  1.999   2.012   2.017   2.038   2.040   2.048   2.050   2.051
137 A'  102 A"  138 A'  139 A'  103 A"  104 A"  105 A"  140 A'                 
  2.057   2.064   2.066   2.082   2.085   2.098   2.102   2.122
141 A'  106 A"  107 A"  142 A'  143 A'  144 A'  145 A'  108 A"                 
  2.123   2.150   2.152   2.164   2.168   2.178   2.180   2.189
146 A'  147 A'  109 A"  148 A'  110 A"  111 A"  112 A"  113 A"                 
  2.189   2.192   2.201   2.222   2.226   2.236   2.243   2.259
149 A'  114 A"  150 A'  151 A'  152 A'  115 A"  153 A'  116 A"                 
  2.267   2.286   2.292   2.292   2.298   2.323   2.334   2.338
154 A'  117 A"  118 A"  155 A'  119 A"  156 A'  120 A"  121 A"                 
  2.365   2.365   2.382   2.397   2.404   2.407   2.431   2.433
157 A'  122 A"  158 A'  123 A"  159 A'  124 A"  160 A'  125 A"                 
  2.441   2.450   2.460   2.466   2.474   2.476   2.484   2.509
161 A'  126 A"  162 A'  163 A'  127 A"  164 A'  128 A"  165 A'                 
  2.510   2.519   2.541   2.577   2.583   2.591   2.607   2.617
129 A"  166 A'  130 A"  167 A'  168 A'  131 A"  169 A'  170 A'                 
  2.621   2.624   2.643   2.653   2.656   2.666   2.685   2.687
132 A"  133 A"  171 A'  172 A'  134 A"  135 A"  173 A'  136 A"                 
  2.695   2.731   2.735   2.767   2.797   2.813   2.827   2.840
174 A'  137 A"  138 A"  139 A"  140 A"  175 A'  176 A'  141 A"                 
  2.851   2.875   2.887   2.908   2.915   2.934   2.935   2.982
177 A'  178 A'  142 A"  179 A'  180 A'  143 A"  144 A"  181 A'                 
  3.032   3.038   3.058   3.069   3.108   3.110   3.127   3.151
145 A"  182 A'  146 A"  183 A'  147 A"  184 A'  185 A'  186 A'                 
  3.155   3.166   3.191   3.526   3.528
148 A"  187 A'  149 A"  150 A"  151 A"                                         
 --------------------------------------------------------------

          Ground-State Mulliken Net Atomic Charges

     Atom                 Charge (a.u.)
  ----------------------------------------
      1 C                    -0.069459
      2 C                    -0.032430
      3 C                    -0.032430
      4 H                     0.021396
      5 C                    -0.069459
      6 H                     0.021396
      7 C                    -0.035828
      8 C                     0.095279
      9 H                     0.009647
     10 C                    -0.035828
     11 C                    -0.038944
     12 H                     0.021176
     13 C                    -0.038944
     14 H                     0.021176
     15 H                     0.009647
     16 C                    -0.026453
     17 C                    -0.026453
     18 C                     0.055263
     19 C                    -0.073758
     20 C                    -0.073758
     21 C                    -0.022716
     22 C                    -0.022716
     23 C                     0.080660
     24 H                     0.025205
     25 H                     0.033054
     26 H                     0.003071
     27 H                     0.003071
     28 H                     0.018723
     29 H                     0.018723
     30 H                     0.024899
     31 H                     0.025819
     32 H                     0.006969
     33 H                     0.006969
     34 H                     0.019976
     35 H                     0.019976
     36 H                     0.031912
     37 H                     0.025170
  ----------------------------------------
  Sum of atomic charges =     0.000000

 -----------------------------------------------------------------
                    Cartesian Multipole Moments
 -----------------------------------------------------------------
    Charge (ESU x 10^10)
                -0.0000
    Dipole Moment (Debye)
         X       0.0768      Y       0.0278      Z       0.0000
       Tot       0.0816
    Quadrupole Moments (Debye-Ang)
        XX    -111.1871     XY      -0.3828     YY    -102.1575
        XZ      -0.0000     YZ       0.0000     ZZ     -99.6570
    Octopole Moments (Debye-Ang^2)
       XXX       5.0640    XXY      -3.8349    XYY      -0.2516
       YYY      -1.1560    XXZ       0.0000    XYZ       0.0000
       YYZ      -0.0000    XZZ      -0.3915    YZZ      -3.6994
       ZZZ       0.0000
    Hexadecapole Moments (Debye-Ang^3)
      XXXX   -4241.5599   XXXY     -12.0641   XXYY    -738.0344
      XYYY       0.6901   YYYY    -662.3598   XXXZ      -0.0000
      XXYZ      -0.0000   XYYZ      -0.0000   YYYZ       0.0000
      XXZZ    -732.5291   XYZZ      -0.5284   YYZZ    -213.7416
      XZZZ      -0.0000   YZZZ       0.0000   ZZZZ    -654.0883
 -----------------------------------------------------------------
 Total job time:  7718.25s(wall), 116463.78s(cpu) 
 Wed Dec 11 20:53:47 2024

        *************************************************************
        *                                                           *
        *  Thank you very much for using Q-Chem.  Have a nice day.  *
        *                                                           *
        *************************************************************


